HOOMD-blue 2.9.6 CUDA (10.2) DOUBLE HPMC_MIXED TBB SSE SSE2 SSE3 
Compiled: 03/17/2021
Copyright (c) 2009-2019 The Regents of the University of Michigan.
-----
You are using HOOMD-blue. Please cite the following:
* J A Anderson, J Glaser, and S C Glotzer. "HOOMD-blue: A Python package for
  high-performance molecular dynamics and hard particle Monte Carlo
  simulations", Computational Materials Science 173 (2020) 109363
-----
HOOMD-blue is running on the following GPU(s):
 [0]  Tesla P100-PCIE-12GB  56 SM_6.0 @ 1.33 GHz, 12198 MiB DRAM, MNG
run.py:007  |  system = read_gsd("/home/erjank_project/chrisjones/pekk-msibi-final/learning-runs/single-chains/workspace/b83dce273531102fa2c624e593dddb4c/components.gsd", frame=-1, time_step=0)
notice(2): Group "all" created containing 60 particles
run.py:009  |  nl = hoomd.md.nlist.tree()
-----
You are using tree neighbor lists. Please cite the following:
* M P Howard, J A Anderson, A Nikoubashman, S C Glotzer, and A Z
  Panagiotopoulos. "Efficient neighbor list calculation for molecular simulation
  of colloidal systems using graphics processing units", Computer Physics
  Communications 203 (2016) 45--52
* M P Howard, A Statt, F Madutsa, T M Truskett, and A Z Panagiotopoulos.
  "Quantized bounding volume hierarchies for neighbor search in molecular
  simulations on graphics processing units", Computational Materials Science 164
  (2019) 139--146
-----
run.py:010  |  nl.reset_exclusions(exclusions=['1-2', '1-3'])
notice(2): -- Neighborlist exclusion statistics -- :
notice(2): Particles with 2 exclusions             : 2
notice(2): Particles with 3 exclusions             : 2
notice(2): Particles with 4 exclusions             : 56
notice(2): Neighbors included by diameter          : no
notice(2): Neighbors excluded when in the same body: no
run.py:012  |  lj = hoomd.md.pair.lj(nlist=nl, r_cut=0)
run.py:013  |  lj.pair_coeff.set('E', 'E', epsilon=0, sigma=1, r_cut=0)
run.py:014  |  lj.pair_coeff.set('K', 'K', epsilon=0, sigma=1, r_cut=0)
run.py:015  |  lj.pair_coeff.set('E', 'K', epsilon=0, sigma=1, r_cut=0)
run.py:016  |  harmonic_bond = hoomd.md.bond.harmonic()
run.py:017  |  harmonic_bond.bond_coeff.set('E-K', k=850, r0=1.47)
run.py:018  |  harmonic_bond.bond_coeff.set('K-K', k=1450, r0=1.53)
run.py:019  |  atable = hoomd.md.angle.table(width=200)
run.py:020  |  atable.set_from_file('E-K-K', '/home/erjank_project/chrisjones/pekk-msibi-final/msibi-runs/angles-harmonic-bonds-6.5kT/potentials/angle_pot.E-K-K.txt')
run.py:021  |  atable.set_from_file('K-E-K', '/home/erjank_project/chrisjones/pekk-msibi-final/msibi-runs/angles-harmonic-bonds-6.5kT/potentials/angle_pot.K-E-K.txt')
run.py:023  |  _all = hoomd.group.all()
run.py:024  |  hoomd.md.integrate.mode_standard(0.0003)
run.py:026  |  integrator = hoomd.md.integrate.nvt(group=_all, **integrator_kwargs)
run.py:000  |  
import hoomd
import hoomd.md
from hoomd.init import read_gsd

hoomd.context.initialize("")
system = read_gsd("/home/erjank_project/chrisjones/pekk-msibi-final/learning-runs/single-chains/workspace/b83dce273531102fa2c624e593dddb4c/components.gsd", frame=-1, time_step=0)

nl = hoomd.md.nlist.tree()
nl.reset_exclusions(exclusions=['1-2', '1-3'])

lj = hoomd.md.pair.lj(nlist=nl, r_cut=0)
lj.pair_coeff.set('E', 'E', epsilon=0, sigma=1, r_cut=0)
lj.pair_coeff.set('K', 'K', epsilon=0, sigma=1, r_cut=0)
lj.pair_coeff.set('E', 'K', epsilon=0, sigma=1, r_cut=0)
harmonic_bond = hoomd.md.bond.harmonic()
harmonic_bond.bond_coeff.set('E-K', k=850, r0=1.47)
harmonic_bond.bond_coeff.set('K-K', k=1450, r0=1.53)
atable = hoomd.md.angle.table(width=200)
atable.set_from_file('E-K-K', '/home/erjank_project/chrisjones/pekk-msibi-final/msibi-runs/angles-harmonic-bonds-6.5kT/potentials/angle_pot.E-K-K.txt')
atable.set_from_file('K-E-K', '/home/erjank_project/chrisjones/pekk-msibi-final/msibi-runs/angles-harmonic-bonds-6.5kT/potentials/angle_pot.K-E-K.txt')

_all = hoomd.group.all()
hoomd.md.integrate.mode_standard(0.0003)
integrator_kwargs = {'tau': 0.01, 'kT': 6.5}
integrator = hoomd.md.integrate.nvt(group=_all, **integrator_kwargs)


hoomd.dump.gsd(
run.py:037  |  hoomd.run(6000000)
** starting run **
Time 00:00:10 | Step 128905 / 6000000 | TPS 12890.5 | ETA 00:07:35
Time 00:00:20 | Step 262697 / 6000000 | TPS 13379.2 | ETA 00:07:08
Time 00:00:30 | Step 396674 / 6000000 | TPS 13397.7 | ETA 00:06:58
Time 00:00:40 | Step 530353 / 6000000 | TPS 13367.9 | ETA 00:06:49
Time 00:00:50 | Step 664107 / 6000000 | TPS 13375.3 | ETA 00:06:38
Time 00:01:00 | Step 798109 / 6000000 | TPS 13400.2 | ETA 00:06:28
Time 00:01:10 | Step 932061 / 6000000 | TPS 13395.1 | ETA 00:06:18
Time 00:01:20 | Step 1066040 / 6000000 | TPS 13397.8 | ETA 00:06:08
Time 00:01:30 | Step 1199994 / 6000000 | TPS 13395.4 | ETA 00:05:58
Time 00:01:40 | Step 1333551 / 6000000 | TPS 13355.6 | ETA 00:05:49
Time 00:01:50 | Step 1467296 / 6000000 | TPS 13374.5 | ETA 00:05:38
Time 00:02:00 | Step 1600884 / 6000000 | TPS 13358.8 | ETA 00:05:29
Time 00:02:10 | Step 1734558 / 6000000 | TPS 13367.3 | ETA 00:05:19
Time 00:02:20 | Step 1868295 / 6000000 | TPS 13373.7 | ETA 00:05:08
Time 00:02:30 | Step 2002067 / 6000000 | TPS 13377.1 | ETA 00:04:58
Time 00:02:40 | Step 2135711 / 6000000 | TPS 13364.4 | ETA 00:04:49
Time 00:02:50 | Step 2269463 / 6000000 | TPS 13375.1 | ETA 00:04:38
Time 00:03:00 | Step 2403119 / 6000000 | TPS 13365.5 | ETA 00:04:29
Time 00:03:10 | Step 2536764 / 6000000 | TPS 13364.5 | ETA 00:04:19
Time 00:03:20 | Step 2670633 / 6000000 | TPS 13386.9 | ETA 00:04:08
Time 00:03:30 | Step 2804423 / 6000000 | TPS 13378.9 | ETA 00:03:58
Time 00:03:40 | Step 2938071 / 6000000 | TPS 13364.8 | ETA 00:03:49
Time 00:03:50 | Step 3071729 / 6000000 | TPS 13365.7 | ETA 00:03:39
Time 00:04:00 | Step 3205382 / 6000000 | TPS 13365.3 | ETA 00:03:29
Time 00:04:10 | Step 3339181 / 6000000 | TPS 13379.9 | ETA 00:03:18
Time 00:04:20 | Step 3472825 / 6000000 | TPS 13364.4 | ETA 00:03:09
Time 00:04:30 | Step 3606642 / 6000000 | TPS 13381.7 | ETA 00:02:58
Time 00:04:40 | Step 3740681 / 6000000 | TPS 13403.8 | ETA 00:02:48
Time 00:04:50 | Step 3875024 / 6000000 | TPS 13434.3 | ETA 00:02:38
Time 00:05:00 | Step 4009624 / 6000000 | TPS 13459.9 | ETA 00:02:27
Time 00:05:10 | Step 4144152 / 6000000 | TPS 13452.7 | ETA 00:02:17
Time 00:05:20 | Step 4278714 / 6000000 | TPS 13456.1 | ETA 00:02:07
Time 00:05:30 | Step 4413329 / 6000000 | TPS 13461.4 | ETA 00:01:57
Time 00:05:40 | Step 4547967 / 6000000 | TPS 13463.8 | ETA 00:01:47
Time 00:05:50 | Step 4682591 / 6000000 | TPS 13462.4 | ETA 00:01:37
Time 00:06:00 | Step 4817170 / 6000000 | TPS 13457.9 | ETA 00:01:27
Time 00:06:10 | Step 4951738 / 6000000 | TPS 13456.8 | ETA 00:01:17
Time 00:06:20 | Step 5086371 / 6000000 | TPS 13463.2 | ETA 00:01:07
Time 00:06:30 | Step 5220899 / 6000000 | TPS 13452.8 | ETA 00:00:57
Time 00:06:40 | Step 5355484 / 6000000 | TPS 13458.5 | ETA 00:00:47
Time 00:06:50 | Step 5490062 / 6000000 | TPS 13457.7 | ETA 00:00:37
Time 00:07:00 | Step 5624376 / 6000000 | TPS 13431.4 | ETA 00:00:27
Time 00:07:10 | Step 5758943 / 6000000 | TPS 13456.7 | ETA 00:00:17
Time 00:07:20 | Step 5893445 / 6000000 | TPS 13450.1 | ETA 00:00:07
Time 00:07:28 | Step 6000000 / 6000000 | TPS 13450.5 | ETA 00:00:00
Average TPS: 13395.1
---------
-- Neighborlist stats:
20088 normal updates / 20000 forced updates / 0 dangerous updates
n_neigh_min: 0 / n_neigh_max: 0 / n_neigh_avg: 0
shortest rebuild period: 99
** run complete **
