HOOMD-blue 2.9.6 CUDA (10.2) DOUBLE HPMC_MIXED TBB SSE SSE2 SSE3 
Compiled: 03/17/2021
Copyright (c) 2009-2019 The Regents of the University of Michigan.
-----
You are using HOOMD-blue. Please cite the following:
* J A Anderson, J Glaser, and S C Glotzer. "HOOMD-blue: A Python package for
  high-performance molecular dynamics and hard particle Monte Carlo
  simulations", Computational Materials Science 173 (2020) 109363
-----
HOOMD-blue is running on the following GPU(s):
 [0]  Tesla P100-PCIE-12GB  56 SM_6.0 @ 1.33 GHz, 12198 MiB DRAM, MNG
run.py:007  |  system = read_gsd("/home/erjank_project/chrisjones/pekk-msibi-final/learning-runs/single-chains/workspace/b83dce273531102fa2c624e593dddb4c/components.gsd", frame=-1, time_step=0)
notice(2): Group "all" created containing 60 particles
run.py:009  |  nl = hoomd.md.nlist.tree()
-----
You are using tree neighbor lists. Please cite the following:
* M P Howard, J A Anderson, A Nikoubashman, S C Glotzer, and A Z
  Panagiotopoulos. "Efficient neighbor list calculation for molecular simulation
  of colloidal systems using graphics processing units", Computer Physics
  Communications 203 (2016) 45--52
* M P Howard, A Statt, F Madutsa, T M Truskett, and A Z Panagiotopoulos.
  "Quantized bounding volume hierarchies for neighbor search in molecular
  simulations on graphics processing units", Computational Materials Science 164
  (2019) 139--146
-----
run.py:010  |  nl.reset_exclusions(exclusions=['1-2', '1-3'])
notice(2): -- Neighborlist exclusion statistics -- :
notice(2): Particles with 2 exclusions             : 2
notice(2): Particles with 3 exclusions             : 2
notice(2): Particles with 4 exclusions             : 56
notice(2): Neighbors included by diameter          : no
notice(2): Neighbors excluded when in the same body: no
run.py:012  |  lj = hoomd.md.pair.lj(nlist=nl, r_cut=0)
run.py:013  |  lj.pair_coeff.set('E', 'E', epsilon=0, sigma=1, r_cut=0)
run.py:014  |  lj.pair_coeff.set('K', 'K', epsilon=0, sigma=1, r_cut=0)
run.py:015  |  lj.pair_coeff.set('E', 'K', epsilon=0, sigma=1, r_cut=0)
run.py:016  |  harmonic_bond = hoomd.md.bond.harmonic()
run.py:017  |  harmonic_bond.bond_coeff.set('E-K', k=850, r0=1.47)
run.py:018  |  harmonic_bond.bond_coeff.set('K-K', k=1450, r0=1.53)
run.py:019  |  atable = hoomd.md.angle.table(width=200)
run.py:020  |  atable.set_from_file('E-K-K', '/home/erjank_project/chrisjones/pekk-msibi-final/msibi-runs/angles-harmonic-bonds-6.5kT/potentials/angle_pot.E-K-K.txt')
run.py:021  |  atable.set_from_file('K-E-K', '/home/erjank_project/chrisjones/pekk-msibi-final/msibi-runs/angles-harmonic-bonds-6.5kT/potentials/angle_pot.K-E-K.txt')
run.py:023  |  _all = hoomd.group.all()
run.py:024  |  hoomd.md.integrate.mode_standard(0.0003)
run.py:026  |  integrator = hoomd.md.integrate.nvt(group=_all, **integrator_kwargs)
run.py:000  |  
import hoomd
import hoomd.md
from hoomd.init import read_gsd

hoomd.context.initialize("")
system = read_gsd("/home/erjank_project/chrisjones/pekk-msibi-final/learning-runs/single-chains/workspace/b83dce273531102fa2c624e593dddb4c/components.gsd", frame=-1, time_step=0)

nl = hoomd.md.nlist.tree()
nl.reset_exclusions(exclusions=['1-2', '1-3'])

lj = hoomd.md.pair.lj(nlist=nl, r_cut=0)
lj.pair_coeff.set('E', 'E', epsilon=0, sigma=1, r_cut=0)
lj.pair_coeff.set('K', 'K', epsilon=0, sigma=1, r_cut=0)
lj.pair_coeff.set('E', 'K', epsilon=0, sigma=1, r_cut=0)
harmonic_bond = hoomd.md.bond.harmonic()
harmonic_bond.bond_coeff.set('E-K', k=850, r0=1.47)
harmonic_bond.bond_coeff.set('K-K', k=1450, r0=1.53)
atable = hoomd.md.angle.table(width=200)
atable.set_from_file('E-K-K', '/home/erjank_project/chrisjones/pekk-msibi-final/msibi-runs/angles-harmonic-bonds-6.5kT/potentials/angle_pot.E-K-K.txt')
atable.set_from_file('K-E-K', '/home/erjank_project/chrisjones/pekk-msibi-final/msibi-runs/angles-harmonic-bonds-6.5kT/potentials/angle_pot.K-E-K.txt')

_all = hoomd.group.all()
hoomd.md.integrate.mode_standard(0.0003)
integrator_kwargs = {'tau': 0.01, 'kT': 6.5}
integrator = hoomd.md.integrate.nvt(group=_all, **integrator_kwargs)


hoomd.dump.gsd(
run.py:037  |  hoomd.run(6000000)
** starting run **
Time 00:00:10 | Step 126559 / 6000000 | TPS 12655.9 | ETA 00:07:44
Time 00:00:20 | Step 257977 / 6000000 | TPS 13141.8 | ETA 00:07:16
Time 00:00:30 | Step 389449 / 6000000 | TPS 13147.1 | ETA 00:07:06
Time 00:00:40 | Step 520934 / 6000000 | TPS 13148.4 | ETA 00:06:56
Time 00:00:50 | Step 652569 / 6000000 | TPS 13163.5 | ETA 00:06:46
Time 00:01:00 | Step 784417 / 6000000 | TPS 13184.7 | ETA 00:06:35
Time 00:01:10 | Step 916272 / 6000000 | TPS 13185.5 | ETA 00:06:25
Time 00:01:20 | Step 1048278 / 6000000 | TPS 13200.5 | ETA 00:06:15
Time 00:01:30 | Step 1180166 / 6000000 | TPS 13188.8 | ETA 00:06:05
Time 00:01:40 | Step 1311888 / 6000000 | TPS 13172.1 | ETA 00:05:55
Time 00:01:50 | Step 1443572 / 6000000 | TPS 13168.3 | ETA 00:05:46
Time 00:02:00 | Step 1575285 / 6000000 | TPS 13171.3 | ETA 00:05:35
Time 00:02:10 | Step 1707065 / 6000000 | TPS 13178 | ETA 00:05:25
Time 00:02:20 | Step 1838923 / 6000000 | TPS 13185.8 | ETA 00:05:15
Time 00:02:30 | Step 1970792 / 6000000 | TPS 13186.8 | ETA 00:05:05
Time 00:02:40 | Step 2102585 / 6000000 | TPS 13179.3 | ETA 00:04:55
Time 00:02:50 | Step 2234408 / 6000000 | TPS 13182.3 | ETA 00:04:45
Time 00:03:00 | Step 2366325 / 6000000 | TPS 13191.6 | ETA 00:04:35
Time 00:03:10 | Step 2498184 / 6000000 | TPS 13185.9 | ETA 00:04:25
Time 00:03:20 | Step 2630045 / 6000000 | TPS 13186 | ETA 00:04:15
Time 00:03:30 | Step 2761850 / 6000000 | TPS 13180.4 | ETA 00:04:05
Time 00:03:40 | Step 2893593 / 6000000 | TPS 13174.3 | ETA 00:03:55
Time 00:03:50 | Step 3025240 / 6000000 | TPS 13164.6 | ETA 00:03:45
Time 00:04:00 | Step 3156876 / 6000000 | TPS 13163.6 | ETA 00:03:35
Time 00:04:10 | Step 3288378 / 6000000 | TPS 13150.2 | ETA 00:03:26
Time 00:04:20 | Step 3419927 / 6000000 | TPS 13154.8 | ETA 00:03:16
Time 00:04:30 | Step 3551509 / 6000000 | TPS 13158.2 | ETA 00:03:06
Time 00:04:40 | Step 3683105 / 6000000 | TPS 13159.5 | ETA 00:02:56
Time 00:04:50 | Step 3814696 / 6000000 | TPS 13159.1 | ETA 00:02:46
Time 00:05:00 | Step 3946456 / 6000000 | TPS 13176 | ETA 00:02:35
Time 00:05:10 | Step 4078114 / 6000000 | TPS 13165.7 | ETA 00:02:25
Time 00:05:20 | Step 4209663 / 6000000 | TPS 13154.8 | ETA 00:02:16
Time 00:05:30 | Step 4341299 / 6000000 | TPS 13163.6 | ETA 00:02:06
Time 00:05:40 | Step 4473014 / 6000000 | TPS 13171.5 | ETA 00:01:55
Time 00:05:50 | Step 4604729 / 6000000 | TPS 13171.5 | ETA 00:01:45
Time 00:06:00 | Step 4736431 / 6000000 | TPS 13170.2 | ETA 00:01:35
Time 00:06:10 | Step 4868101 / 6000000 | TPS 13166.5 | ETA 00:01:25
Time 00:06:20 | Step 4999703 / 6000000 | TPS 13160.2 | ETA 00:01:16
Time 00:06:30 | Step 5131336 / 6000000 | TPS 13163.3 | ETA 00:01:05
Time 00:06:40 | Step 5262881 / 6000000 | TPS 13154.5 | ETA 00:00:56
Time 00:06:50 | Step 5394326 / 6000000 | TPS 13144.4 | ETA 00:00:46
Time 00:07:00 | Step 5525912 / 6000000 | TPS 13158.6 | ETA 00:00:36
Time 00:07:10 | Step 5657538 / 6000000 | TPS 13162.6 | ETA 00:00:26
Time 00:07:20 | Step 5789075 / 6000000 | TPS 13153.7 | ETA 00:00:16
Time 00:07:30 | Step 5920615 / 6000000 | TPS 13153.9 | ETA 00:00:06
Time 00:07:36 | Step 6000000 / 6000000 | TPS 13178.3 | ETA 00:00:00
Average TPS: 13157.2
---------
-- Neighborlist stats:
20090 normal updates / 20000 forced updates / 0 dangerous updates
n_neigh_min: 0 / n_neigh_max: 0 / n_neigh_avg: 0
shortest rebuild period: 99
** run complete **
