HOOMD-blue 2.9.6 CUDA (10.2) DOUBLE HPMC_MIXED TBB SSE SSE2 SSE3 
Compiled: 03/17/2021
Copyright (c) 2009-2019 The Regents of the University of Michigan.
-----
You are using HOOMD-blue. Please cite the following:
* J A Anderson, J Glaser, and S C Glotzer. "HOOMD-blue: A Python package for
  high-performance molecular dynamics and hard particle Monte Carlo
  simulations", Computational Materials Science 173 (2020) 109363
-----
HOOMD-blue is running on the following GPU(s):
 [0]  Tesla P100-PCIE-12GB  56 SM_6.0 @ 1.33 GHz, 12198 MiB DRAM, MNG
run.py:007  |  system = read_gsd("/home/erjank_project/chrisjones/pekk-msibi-final/learning-runs/single-chains/workspace/b83dce273531102fa2c624e593dddb4c/components.gsd", frame=-1, time_step=0)
notice(2): Group "all" created containing 60 particles
run.py:009  |  nl = hoomd.md.nlist.tree()
-----
You are using tree neighbor lists. Please cite the following:
* M P Howard, J A Anderson, A Nikoubashman, S C Glotzer, and A Z
  Panagiotopoulos. "Efficient neighbor list calculation for molecular simulation
  of colloidal systems using graphics processing units", Computer Physics
  Communications 203 (2016) 45--52
* M P Howard, A Statt, F Madutsa, T M Truskett, and A Z Panagiotopoulos.
  "Quantized bounding volume hierarchies for neighbor search in molecular
  simulations on graphics processing units", Computational Materials Science 164
  (2019) 139--146
-----
run.py:010  |  nl.reset_exclusions(exclusions=['1-2', '1-3'])
notice(2): -- Neighborlist exclusion statistics -- :
notice(2): Particles with 2 exclusions             : 2
notice(2): Particles with 3 exclusions             : 2
notice(2): Particles with 4 exclusions             : 56
notice(2): Neighbors included by diameter          : no
notice(2): Neighbors excluded when in the same body: no
run.py:012  |  lj = hoomd.md.pair.lj(nlist=nl, r_cut=0)
run.py:013  |  lj.pair_coeff.set('E', 'E', epsilon=0, sigma=1, r_cut=0)
run.py:014  |  lj.pair_coeff.set('K', 'K', epsilon=0, sigma=1, r_cut=0)
run.py:015  |  lj.pair_coeff.set('E', 'K', epsilon=0, sigma=1, r_cut=0)
run.py:016  |  harmonic_bond = hoomd.md.bond.harmonic()
run.py:017  |  harmonic_bond.bond_coeff.set('E-K', k=850, r0=1.47)
run.py:018  |  harmonic_bond.bond_coeff.set('K-K', k=1450, r0=1.53)
run.py:019  |  atable = hoomd.md.angle.table(width=200)
run.py:020  |  atable.set_from_file('E-K-K', '/home/erjank_project/chrisjones/pekk-msibi-final/msibi-runs/angles-harmonic-bonds-6.5kT/potentials/angle_pot.E-K-K.txt')
run.py:021  |  atable.set_from_file('K-E-K', '/home/erjank_project/chrisjones/pekk-msibi-final/msibi-runs/angles-harmonic-bonds-6.5kT/potentials/angle_pot.K-E-K.txt')
run.py:023  |  _all = hoomd.group.all()
run.py:024  |  hoomd.md.integrate.mode_standard(0.0003)
run.py:026  |  integrator = hoomd.md.integrate.nvt(group=_all, **integrator_kwargs)
run.py:000  |  
import hoomd
import hoomd.md
from hoomd.init import read_gsd

hoomd.context.initialize("")
system = read_gsd("/home/erjank_project/chrisjones/pekk-msibi-final/learning-runs/single-chains/workspace/b83dce273531102fa2c624e593dddb4c/components.gsd", frame=-1, time_step=0)

nl = hoomd.md.nlist.tree()
nl.reset_exclusions(exclusions=['1-2', '1-3'])

lj = hoomd.md.pair.lj(nlist=nl, r_cut=0)
lj.pair_coeff.set('E', 'E', epsilon=0, sigma=1, r_cut=0)
lj.pair_coeff.set('K', 'K', epsilon=0, sigma=1, r_cut=0)
lj.pair_coeff.set('E', 'K', epsilon=0, sigma=1, r_cut=0)
harmonic_bond = hoomd.md.bond.harmonic()
harmonic_bond.bond_coeff.set('E-K', k=850, r0=1.47)
harmonic_bond.bond_coeff.set('K-K', k=1450, r0=1.53)
atable = hoomd.md.angle.table(width=200)
atable.set_from_file('E-K-K', '/home/erjank_project/chrisjones/pekk-msibi-final/msibi-runs/angles-harmonic-bonds-6.5kT/potentials/angle_pot.E-K-K.txt')
atable.set_from_file('K-E-K', '/home/erjank_project/chrisjones/pekk-msibi-final/msibi-runs/angles-harmonic-bonds-6.5kT/potentials/angle_pot.K-E-K.txt')

_all = hoomd.group.all()
hoomd.md.integrate.mode_standard(0.0003)
integrator_kwargs = {'tau': 0.01, 'kT': 6.5}
integrator = hoomd.md.integrate.nvt(group=_all, **integrator_kwargs)


hoomd.dump.gsd(
run.py:037  |  hoomd.run(6000000)
** starting run **
Time 00:00:10 | Step 129983 / 6000000 | TPS 12998.3 | ETA 00:07:31
Time 00:00:20 | Step 264845 / 6000000 | TPS 13486.1 | ETA 00:07:05
Time 00:00:30 | Step 399605 / 6000000 | TPS 13476 | ETA 00:06:55
Time 00:00:40 | Step 535377 / 6000000 | TPS 13577.2 | ETA 00:06:42
Time 00:00:50 | Step 671051 / 6000000 | TPS 13567.3 | ETA 00:06:32
Time 00:01:00 | Step 806584 / 6000000 | TPS 13553.2 | ETA 00:06:23
Time 00:01:10 | Step 941889 / 6000000 | TPS 13530.4 | ETA 00:06:13
Time 00:01:20 | Step 1077067 / 6000000 | TPS 13517.7 | ETA 00:06:04
Time 00:01:30 | Step 1211675 / 6000000 | TPS 13460.8 | ETA 00:05:55
Time 00:01:40 | Step 1346500 / 6000000 | TPS 13482.5 | ETA 00:05:45
Time 00:01:50 | Step 1481416 / 6000000 | TPS 13491.5 | ETA 00:05:34
Time 00:02:00 | Step 1616313 / 6000000 | TPS 13489.7 | ETA 00:05:24
Time 00:02:10 | Step 1751105 / 6000000 | TPS 13479.2 | ETA 00:05:15
Time 00:02:20 | Step 1886034 / 6000000 | TPS 13492.8 | ETA 00:05:04
Time 00:02:30 | Step 2020914 / 6000000 | TPS 13487.9 | ETA 00:04:55
Time 00:02:40 | Step 2155954 / 6000000 | TPS 13504 | ETA 00:04:44
Time 00:02:50 | Step 2291074 / 6000000 | TPS 13511.9 | ETA 00:04:34
Time 00:03:00 | Step 2426096 / 6000000 | TPS 13502.1 | ETA 00:04:24
Time 00:03:10 | Step 2561021 / 6000000 | TPS 13492.4 | ETA 00:04:14
Time 00:03:20 | Step 2695967 / 6000000 | TPS 13494.6 | ETA 00:04:04
Time 00:03:30 | Step 2830924 / 6000000 | TPS 13495.6 | ETA 00:03:54
Time 00:03:40 | Step 2965767 / 6000000 | TPS 13484.2 | ETA 00:03:45
Time 00:03:50 | Step 3100475 / 6000000 | TPS 13470.8 | ETA 00:03:35
Time 00:04:00 | Step 3235249 / 6000000 | TPS 13477.4 | ETA 00:03:25
Time 00:04:10 | Step 3370195 / 6000000 | TPS 13494.6 | ETA 00:03:14
Time 00:04:20 | Step 3505259 / 6000000 | TPS 13506.3 | ETA 00:03:04
Time 00:04:30 | Step 3640191 / 6000000 | TPS 13493.1 | ETA 00:02:54
Time 00:04:40 | Step 3775148 / 6000000 | TPS 13495.7 | ETA 00:02:44
Time 00:04:50 | Step 3910096 / 6000000 | TPS 13494.7 | ETA 00:02:34
Time 00:05:00 | Step 4045214 / 6000000 | TPS 13511.7 | ETA 00:02:24
Time 00:05:10 | Step 4180445 / 6000000 | TPS 13523.1 | ETA 00:02:14
Time 00:05:20 | Step 4315664 / 6000000 | TPS 13521.9 | ETA 00:02:04
Time 00:05:30 | Step 4450557 / 6000000 | TPS 13489.3 | ETA 00:01:54
Time 00:05:40 | Step 4585369 / 6000000 | TPS 13481.2 | ETA 00:01:44
Time 00:05:50 | Step 4720134 / 6000000 | TPS 13476.5 | ETA 00:01:34
Time 00:06:00 | Step 4854880 / 6000000 | TPS 13474.6 | ETA 00:01:24
Time 00:06:10 | Step 4989796 / 6000000 | TPS 13491.5 | ETA 00:01:14
Time 00:06:20 | Step 5124718 / 6000000 | TPS 13492.2 | ETA 00:01:04
Time 00:06:30 | Step 5259336 / 6000000 | TPS 13461.7 | ETA 00:00:55
Time 00:06:40 | Step 5394043 / 6000000 | TPS 13470.7 | ETA 00:00:44
Time 00:06:50 | Step 5528656 / 6000000 | TPS 13461.3 | ETA 00:00:35
Time 00:07:00 | Step 5663594 / 6000000 | TPS 13493.8 | ETA 00:00:24
Time 00:07:10 | Step 5798435 / 6000000 | TPS 13484 | ETA 00:00:14
Time 00:07:20 | Step 5933049 / 6000000 | TPS 13461.4 | ETA 00:00:04
Time 00:07:25 | Step 6000000 / 6000000 | TPS 13497.9 | ETA 00:00:00
Average TPS: 13484.3
---------
-- Neighborlist stats:
20081 normal updates / 20000 forced updates / 0 dangerous updates
n_neigh_min: 0 / n_neigh_max: 0 / n_neigh_avg: 0
shortest rebuild period: 99
** run complete **
