HOOMD-blue 2.9.6 CUDA (10.2) DOUBLE HPMC_MIXED TBB SSE SSE2 SSE3 
Compiled: 03/17/2021
Copyright (c) 2009-2019 The Regents of the University of Michigan.
-----
You are using HOOMD-blue. Please cite the following:
* J A Anderson, J Glaser, and S C Glotzer. "HOOMD-blue: A Python package for
  high-performance molecular dynamics and hard particle Monte Carlo
  simulations", Computational Materials Science 173 (2020) 109363
-----
HOOMD-blue is running on the following GPU(s):
 [0]  Tesla P100-PCIE-12GB  56 SM_6.0 @ 1.33 GHz, 12198 MiB DRAM, MNG
run.py:007  |  system = read_gsd("/home/erjank_project/chrisjones/pekk-msibi-final/learning-runs/single-chains/workspace/b83dce273531102fa2c624e593dddb4c/components.gsd", frame=-1, time_step=0)
notice(2): Group "all" created containing 60 particles
run.py:009  |  nl = hoomd.md.nlist.tree()
-----
You are using tree neighbor lists. Please cite the following:
* M P Howard, J A Anderson, A Nikoubashman, S C Glotzer, and A Z
  Panagiotopoulos. "Efficient neighbor list calculation for molecular simulation
  of colloidal systems using graphics processing units", Computer Physics
  Communications 203 (2016) 45--52
* M P Howard, A Statt, F Madutsa, T M Truskett, and A Z Panagiotopoulos.
  "Quantized bounding volume hierarchies for neighbor search in molecular
  simulations on graphics processing units", Computational Materials Science 164
  (2019) 139--146
-----
run.py:010  |  nl.reset_exclusions(exclusions=['1-2', '1-3'])
notice(2): -- Neighborlist exclusion statistics -- :
notice(2): Particles with 2 exclusions             : 2
notice(2): Particles with 3 exclusions             : 2
notice(2): Particles with 4 exclusions             : 56
notice(2): Neighbors included by diameter          : no
notice(2): Neighbors excluded when in the same body: no
run.py:012  |  lj = hoomd.md.pair.lj(nlist=nl, r_cut=0)
run.py:013  |  lj.pair_coeff.set('E', 'E', epsilon=0, sigma=1, r_cut=0)
run.py:014  |  lj.pair_coeff.set('K', 'K', epsilon=0, sigma=1, r_cut=0)
run.py:015  |  lj.pair_coeff.set('E', 'K', epsilon=0, sigma=1, r_cut=0)
run.py:016  |  harmonic_bond = hoomd.md.bond.harmonic()
run.py:017  |  harmonic_bond.bond_coeff.set('E-K', k=850, r0=1.47)
run.py:018  |  harmonic_bond.bond_coeff.set('K-K', k=1450, r0=1.53)
run.py:019  |  atable = hoomd.md.angle.table(width=200)
run.py:020  |  atable.set_from_file('E-K-K', '/home/erjank_project/chrisjones/pekk-msibi-final/msibi-runs/angles-harmonic-bonds-6.5kT/potentials/angle_pot.E-K-K.txt')
run.py:021  |  atable.set_from_file('K-E-K', '/home/erjank_project/chrisjones/pekk-msibi-final/msibi-runs/angles-harmonic-bonds-6.5kT/potentials/angle_pot.K-E-K.txt')
run.py:023  |  _all = hoomd.group.all()
run.py:024  |  hoomd.md.integrate.mode_standard(0.0003)
run.py:026  |  integrator = hoomd.md.integrate.nvt(group=_all, **integrator_kwargs)
run.py:000  |  
import hoomd
import hoomd.md
from hoomd.init import read_gsd

hoomd.context.initialize("")
system = read_gsd("/home/erjank_project/chrisjones/pekk-msibi-final/learning-runs/single-chains/workspace/b83dce273531102fa2c624e593dddb4c/components.gsd", frame=-1, time_step=0)

nl = hoomd.md.nlist.tree()
nl.reset_exclusions(exclusions=['1-2', '1-3'])

lj = hoomd.md.pair.lj(nlist=nl, r_cut=0)
lj.pair_coeff.set('E', 'E', epsilon=0, sigma=1, r_cut=0)
lj.pair_coeff.set('K', 'K', epsilon=0, sigma=1, r_cut=0)
lj.pair_coeff.set('E', 'K', epsilon=0, sigma=1, r_cut=0)
harmonic_bond = hoomd.md.bond.harmonic()
harmonic_bond.bond_coeff.set('E-K', k=850, r0=1.47)
harmonic_bond.bond_coeff.set('K-K', k=1450, r0=1.53)
atable = hoomd.md.angle.table(width=200)
atable.set_from_file('E-K-K', '/home/erjank_project/chrisjones/pekk-msibi-final/msibi-runs/angles-harmonic-bonds-6.5kT/potentials/angle_pot.E-K-K.txt')
atable.set_from_file('K-E-K', '/home/erjank_project/chrisjones/pekk-msibi-final/msibi-runs/angles-harmonic-bonds-6.5kT/potentials/angle_pot.K-E-K.txt')

_all = hoomd.group.all()
hoomd.md.integrate.mode_standard(0.0003)
integrator_kwargs = {'tau': 0.01, 'kT': 6.5}
integrator = hoomd.md.integrate.nvt(group=_all, **integrator_kwargs)


hoomd.dump.gsd(
run.py:037  |  hoomd.run(6000000)
** starting run **
Time 00:00:10 | Step 130226 / 6000000 | TPS 13022.6 | ETA 00:07:30
Time 00:00:20 | Step 265508 / 6000000 | TPS 13528.1 | ETA 00:07:03
Time 00:00:30 | Step 400710 / 6000000 | TPS 13520.2 | ETA 00:06:54
Time 00:00:40 | Step 535934 / 6000000 | TPS 13522.4 | ETA 00:06:44
Time 00:00:50 | Step 671149 / 6000000 | TPS 13521.5 | ETA 00:06:34
Time 00:01:00 | Step 806310 / 6000000 | TPS 13516 | ETA 00:06:24
Time 00:01:10 | Step 941469 / 6000000 | TPS 13515.9 | ETA 00:06:14
Time 00:01:20 | Step 1076629 / 6000000 | TPS 13516 | ETA 00:06:04
Time 00:01:30 | Step 1211611 / 6000000 | TPS 13498.1 | ETA 00:05:54
Time 00:01:40 | Step 1346951 / 6000000 | TPS 13534 | ETA 00:05:43
Time 00:01:50 | Step 1482135 / 6000000 | TPS 13518.4 | ETA 00:05:34
Time 00:02:00 | Step 1617086 / 6000000 | TPS 13495.1 | ETA 00:05:24
Time 00:02:10 | Step 1752232 / 6000000 | TPS 13514.5 | ETA 00:05:14
Time 00:02:20 | Step 1887529 / 6000000 | TPS 13529.6 | ETA 00:05:03
Time 00:02:30 | Step 2022704 / 6000000 | TPS 13517.5 | ETA 00:04:54
Time 00:02:40 | Step 2158015 / 6000000 | TPS 13531.1 | ETA 00:04:43
Time 00:02:50 | Step 2293153 / 6000000 | TPS 13513.8 | ETA 00:04:34
Time 00:03:00 | Step 2428346 / 6000000 | TPS 13519.3 | ETA 00:04:24
Time 00:03:10 | Step 2563398 / 6000000 | TPS 13505.2 | ETA 00:04:14
Time 00:03:20 | Step 2698595 / 6000000 | TPS 13519.6 | ETA 00:04:04
Time 00:03:30 | Step 2833784 / 6000000 | TPS 13518.8 | ETA 00:03:54
Time 00:03:40 | Step 2969294 / 6000000 | TPS 13551 | ETA 00:03:43
Time 00:03:50 | Step 3104732 / 6000000 | TPS 13543.7 | ETA 00:03:33
Time 00:04:00 | Step 3240335 / 6000000 | TPS 13560.2 | ETA 00:03:23
Time 00:04:10 | Step 3375973 / 6000000 | TPS 13563.7 | ETA 00:03:13
Time 00:04:20 | Step 3511637 / 6000000 | TPS 13566.4 | ETA 00:03:03
Time 00:04:30 | Step 3647311 / 6000000 | TPS 13567.3 | ETA 00:02:53
Time 00:04:40 | Step 3783001 / 6000000 | TPS 13568.6 | ETA 00:02:43
Time 00:04:50 | Step 3918667 / 6000000 | TPS 13566.6 | ETA 00:02:33
Time 00:05:00 | Step 4054424 / 6000000 | TPS 13575.6 | ETA 00:02:23
Time 00:05:10 | Step 4190108 / 6000000 | TPS 13568.3 | ETA 00:02:13
Time 00:05:20 | Step 4325836 / 6000000 | TPS 13572.8 | ETA 00:02:03
Time 00:05:30 | Step 4461606 / 6000000 | TPS 13576.9 | ETA 00:01:53
Time 00:05:40 | Step 4597333 / 6000000 | TPS 13572.6 | ETA 00:01:43
Time 00:05:50 | Step 4733022 / 6000000 | TPS 13568.8 | ETA 00:01:33
Time 00:06:00 | Step 4868745 / 6000000 | TPS 13572.2 | ETA 00:01:23
Time 00:06:10 | Step 5004424 / 6000000 | TPS 13567.9 | ETA 00:01:13
Time 00:06:20 | Step 5140171 / 6000000 | TPS 13574.6 | ETA 00:01:03
Time 00:06:30 | Step 5275942 / 6000000 | TPS 13577.1 | ETA 00:00:53
Time 00:06:40 | Step 5411639 / 6000000 | TPS 13569.7 | ETA 00:00:43
Time 00:06:50 | Step 5547345 / 6000000 | TPS 13570.6 | ETA 00:00:33
Time 00:07:00 | Step 5682956 / 6000000 | TPS 13561 | ETA 00:00:23
Time 00:07:10 | Step 5818501 / 6000000 | TPS 13554 | ETA 00:00:13
Time 00:07:20 | Step 5954258 / 6000000 | TPS 13575.7 | ETA 00:00:03
Time 00:07:23 | Step 6000000 / 6000000 | TPS 13568.6 | ETA 00:00:00
Average TPS: 13532.6
---------
-- Neighborlist stats:
20108 normal updates / 20000 forced updates / 0 dangerous updates
n_neigh_min: 0 / n_neigh_max: 0 / n_neigh_avg: 0
shortest rebuild period: 99
** run complete **
