HOOMD-blue 2.9.6 CUDA (10.2) DOUBLE HPMC_MIXED TBB SSE SSE2 SSE3 
Compiled: 03/17/2021
Copyright (c) 2009-2019 The Regents of the University of Michigan.
-----
You are using HOOMD-blue. Please cite the following:
* J A Anderson, J Glaser, and S C Glotzer. "HOOMD-blue: A Python package for
  high-performance molecular dynamics and hard particle Monte Carlo
  simulations", Computational Materials Science 173 (2020) 109363
-----
HOOMD-blue is running on the following GPU(s):
 [0]  Tesla P100-PCIE-12GB  56 SM_6.0 @ 1.33 GHz, 12198 MiB DRAM, MNG
run.py:007  |  system = read_gsd("/home/erjank_project/chrisjones/pekk-msibi-final/learning-runs/single-chains/workspace/b83dce273531102fa2c624e593dddb4c/components.gsd", frame=-1, time_step=0)
notice(2): Group "all" created containing 60 particles
run.py:009  |  nl = hoomd.md.nlist.tree()
-----
You are using tree neighbor lists. Please cite the following:
* M P Howard, J A Anderson, A Nikoubashman, S C Glotzer, and A Z
  Panagiotopoulos. "Efficient neighbor list calculation for molecular simulation
  of colloidal systems using graphics processing units", Computer Physics
  Communications 203 (2016) 45--52
* M P Howard, A Statt, F Madutsa, T M Truskett, and A Z Panagiotopoulos.
  "Quantized bounding volume hierarchies for neighbor search in molecular
  simulations on graphics processing units", Computational Materials Science 164
  (2019) 139--146
-----
run.py:010  |  nl.reset_exclusions(exclusions=['1-2', '1-3'])
notice(2): -- Neighborlist exclusion statistics -- :
notice(2): Particles with 2 exclusions             : 2
notice(2): Particles with 3 exclusions             : 2
notice(2): Particles with 4 exclusions             : 56
notice(2): Neighbors included by diameter          : no
notice(2): Neighbors excluded when in the same body: no
run.py:012  |  lj = hoomd.md.pair.lj(nlist=nl, r_cut=0)
run.py:013  |  lj.pair_coeff.set('E', 'E', epsilon=0, sigma=1, r_cut=0)
run.py:014  |  lj.pair_coeff.set('K', 'K', epsilon=0, sigma=1, r_cut=0)
run.py:015  |  lj.pair_coeff.set('E', 'K', epsilon=0, sigma=1, r_cut=0)
run.py:016  |  harmonic_bond = hoomd.md.bond.harmonic()
run.py:017  |  harmonic_bond.bond_coeff.set('E-K', k=850, r0=1.47)
run.py:018  |  harmonic_bond.bond_coeff.set('K-K', k=1450, r0=1.53)
run.py:019  |  atable = hoomd.md.angle.table(width=200)
run.py:020  |  atable.set_from_file('E-K-K', '/home/erjank_project/chrisjones/pekk-msibi-final/msibi-runs/angles-harmonic-bonds-6.5kT/potentials/angle_pot.E-K-K.txt')
run.py:021  |  atable.set_from_file('K-E-K', '/home/erjank_project/chrisjones/pekk-msibi-final/msibi-runs/angles-harmonic-bonds-6.5kT/potentials/angle_pot.K-E-K.txt')
run.py:023  |  _all = hoomd.group.all()
run.py:024  |  hoomd.md.integrate.mode_standard(0.0003)
run.py:026  |  integrator = hoomd.md.integrate.nvt(group=_all, **integrator_kwargs)
run.py:000  |  
import hoomd
import hoomd.md
from hoomd.init import read_gsd

hoomd.context.initialize("")
system = read_gsd("/home/erjank_project/chrisjones/pekk-msibi-final/learning-runs/single-chains/workspace/b83dce273531102fa2c624e593dddb4c/components.gsd", frame=-1, time_step=0)

nl = hoomd.md.nlist.tree()
nl.reset_exclusions(exclusions=['1-2', '1-3'])

lj = hoomd.md.pair.lj(nlist=nl, r_cut=0)
lj.pair_coeff.set('E', 'E', epsilon=0, sigma=1, r_cut=0)
lj.pair_coeff.set('K', 'K', epsilon=0, sigma=1, r_cut=0)
lj.pair_coeff.set('E', 'K', epsilon=0, sigma=1, r_cut=0)
harmonic_bond = hoomd.md.bond.harmonic()
harmonic_bond.bond_coeff.set('E-K', k=850, r0=1.47)
harmonic_bond.bond_coeff.set('K-K', k=1450, r0=1.53)
atable = hoomd.md.angle.table(width=200)
atable.set_from_file('E-K-K', '/home/erjank_project/chrisjones/pekk-msibi-final/msibi-runs/angles-harmonic-bonds-6.5kT/potentials/angle_pot.E-K-K.txt')
atable.set_from_file('K-E-K', '/home/erjank_project/chrisjones/pekk-msibi-final/msibi-runs/angles-harmonic-bonds-6.5kT/potentials/angle_pot.K-E-K.txt')

_all = hoomd.group.all()
hoomd.md.integrate.mode_standard(0.0003)
integrator_kwargs = {'tau': 0.01, 'kT': 6.5}
integrator = hoomd.md.integrate.nvt(group=_all, **integrator_kwargs)


hoomd.dump.gsd(
run.py:037  |  hoomd.run(6000000)
** starting run **
Time 00:00:10 | Step 128824 / 6000000 | TPS 12882.3 | ETA 00:07:35
Time 00:00:20 | Step 262498 / 6000000 | TPS 13367.4 | ETA 00:07:09
Time 00:00:30 | Step 396160 / 6000000 | TPS 13366.2 | ETA 00:06:59
Time 00:00:40 | Step 529863 / 6000000 | TPS 13370.3 | ETA 00:06:49
Time 00:00:50 | Step 663598 / 6000000 | TPS 13373.4 | ETA 00:06:39
Time 00:01:00 | Step 797233 / 6000000 | TPS 13363.4 | ETA 00:06:29
Time 00:01:10 | Step 930903 / 6000000 | TPS 13366.9 | ETA 00:06:19
Time 00:01:20 | Step 1064650 / 6000000 | TPS 13374.7 | ETA 00:06:09
Time 00:01:30 | Step 1198418 / 6000000 | TPS 13376.7 | ETA 00:05:58
Time 00:01:40 | Step 1331889 / 6000000 | TPS 13347 | ETA 00:05:49
Time 00:01:50 | Step 1465618 / 6000000 | TPS 13372.8 | ETA 00:05:39
Time 00:02:00 | Step 1599350 / 6000000 | TPS 13373.1 | ETA 00:05:29
Time 00:02:10 | Step 1733142 / 6000000 | TPS 13379.2 | ETA 00:05:18
Time 00:02:20 | Step 1866809 / 6000000 | TPS 13366.6 | ETA 00:05:09
Time 00:02:30 | Step 2000563 / 6000000 | TPS 13375.3 | ETA 00:04:59
Time 00:02:40 | Step 2134101 / 6000000 | TPS 13353.8 | ETA 00:04:49
Time 00:02:50 | Step 2267740 / 6000000 | TPS 13363.9 | ETA 00:04:39
Time 00:03:00 | Step 2401322 / 6000000 | TPS 13358.1 | ETA 00:04:29
Time 00:03:10 | Step 2535056 / 6000000 | TPS 13373.4 | ETA 00:04:19
Time 00:03:20 | Step 2668799 / 6000000 | TPS 13374.2 | ETA 00:04:09
Time 00:03:30 | Step 2802651 / 6000000 | TPS 13385.1 | ETA 00:03:58
Time 00:03:40 | Step 2936339 / 6000000 | TPS 13368.7 | ETA 00:03:49
Time 00:03:50 | Step 3070061 / 6000000 | TPS 13372.1 | ETA 00:03:39
Time 00:04:00 | Step 3203642 / 6000000 | TPS 13358.1 | ETA 00:03:29
Time 00:04:10 | Step 3337379 / 6000000 | TPS 13373.7 | ETA 00:03:19
Time 00:04:20 | Step 3471200 / 6000000 | TPS 13382.1 | ETA 00:03:08
Time 00:04:30 | Step 3604937 / 6000000 | TPS 13373.7 | ETA 00:02:59
Time 00:04:40 | Step 3738529 / 6000000 | TPS 13359.1 | ETA 00:02:49
Time 00:04:50 | Step 3872243 / 6000000 | TPS 13371.3 | ETA 00:02:39
Time 00:05:00 | Step 4005779 / 6000000 | TPS 13353.6 | ETA 00:02:29
Time 00:05:10 | Step 4139333 / 6000000 | TPS 13355.3 | ETA 00:02:19
Time 00:05:20 | Step 4272797 / 6000000 | TPS 13346.3 | ETA 00:02:09
Time 00:05:30 | Step 4406014 / 6000000 | TPS 13321.7 | ETA 00:01:59
Time 00:05:40 | Step 4538866 / 6000000 | TPS 13285.1 | ETA 00:01:49
Time 00:05:50 | Step 4672103 / 6000000 | TPS 13323.7 | ETA 00:01:39
Time 00:06:00 | Step 4805456 / 6000000 | TPS 13335.3 | ETA 00:01:29
Time 00:06:10 | Step 4938844 / 6000000 | TPS 13338.7 | ETA 00:01:19
Time 00:06:20 | Step 5071809 / 6000000 | TPS 13296.4 | ETA 00:01:09
Time 00:06:30 | Step 5204763 / 6000000 | TPS 13295.3 | ETA 00:00:59
Time 00:06:40 | Step 5337563 / 6000000 | TPS 13280 | ETA 00:00:49
Time 00:06:50 | Step 5470892 / 6000000 | TPS 13332.9 | ETA 00:00:39
Time 00:07:00 | Step 5604299 / 6000000 | TPS 13340.7 | ETA 00:00:29
Time 00:07:10 | Step 5737595 / 6000000 | TPS 13329.6 | ETA 00:00:19
Time 00:07:20 | Step 5871053 / 6000000 | TPS 13345.7 | ETA 00:00:09
Time 00:07:29 | Step 6000000 / 6000000 | TPS 13337.2 | ETA 00:00:00
Average TPS: 13343.1
---------
-- Neighborlist stats:
20111 normal updates / 20000 forced updates / 0 dangerous updates
n_neigh_min: 0 / n_neigh_max: 0 / n_neigh_avg: 0
shortest rebuild period: 99
** run complete **
