HOOMD-blue 2.9.6 CUDA (10.2) DOUBLE HPMC_MIXED TBB SSE SSE2 SSE3 
Compiled: 03/17/2021
Copyright (c) 2009-2019 The Regents of the University of Michigan.
-----
You are using HOOMD-blue. Please cite the following:
* J A Anderson, J Glaser, and S C Glotzer. "HOOMD-blue: A Python package for
  high-performance molecular dynamics and hard particle Monte Carlo
  simulations", Computational Materials Science 173 (2020) 109363
-----
HOOMD-blue is running on the following GPU(s):
 [0]  Tesla P100-PCIE-12GB  56 SM_6.0 @ 1.33 GHz, 12198 MiB DRAM, MNG
run.py:007  |  system = read_gsd("/home/erjank_project/chrisjones/pekk-msibi-final/learning-runs/single-chains/workspace/b83dce273531102fa2c624e593dddb4c/components.gsd", frame=-1, time_step=0)
notice(2): Group "all" created containing 60 particles
run.py:009  |  nl = hoomd.md.nlist.tree()
-----
You are using tree neighbor lists. Please cite the following:
* M P Howard, J A Anderson, A Nikoubashman, S C Glotzer, and A Z
  Panagiotopoulos. "Efficient neighbor list calculation for molecular simulation
  of colloidal systems using graphics processing units", Computer Physics
  Communications 203 (2016) 45--52
* M P Howard, A Statt, F Madutsa, T M Truskett, and A Z Panagiotopoulos.
  "Quantized bounding volume hierarchies for neighbor search in molecular
  simulations on graphics processing units", Computational Materials Science 164
  (2019) 139--146
-----
run.py:010  |  nl.reset_exclusions(exclusions=['1-2', '1-3'])
notice(2): -- Neighborlist exclusion statistics -- :
notice(2): Particles with 2 exclusions             : 2
notice(2): Particles with 3 exclusions             : 2
notice(2): Particles with 4 exclusions             : 56
notice(2): Neighbors included by diameter          : no
notice(2): Neighbors excluded when in the same body: no
run.py:012  |  lj = hoomd.md.pair.lj(nlist=nl, r_cut=0)
run.py:013  |  lj.pair_coeff.set('E', 'E', epsilon=0, sigma=1, r_cut=0)
run.py:014  |  lj.pair_coeff.set('K', 'K', epsilon=0, sigma=1, r_cut=0)
run.py:015  |  lj.pair_coeff.set('E', 'K', epsilon=0, sigma=1, r_cut=0)
run.py:016  |  harmonic_bond = hoomd.md.bond.harmonic()
run.py:017  |  harmonic_bond.bond_coeff.set('E-K', k=850, r0=1.47)
run.py:018  |  harmonic_bond.bond_coeff.set('K-K', k=1450, r0=1.53)
run.py:019  |  atable = hoomd.md.angle.table(width=200)
run.py:020  |  atable.set_from_file('E-K-K', '/home/erjank_project/chrisjones/pekk-msibi-final/msibi-runs/angles-harmonic-bonds-6.5kT/potentials/angle_pot.E-K-K.txt')
run.py:021  |  atable.set_from_file('K-E-K', '/home/erjank_project/chrisjones/pekk-msibi-final/msibi-runs/angles-harmonic-bonds-6.5kT/potentials/angle_pot.K-E-K.txt')
run.py:023  |  _all = hoomd.group.all()
run.py:024  |  hoomd.md.integrate.mode_standard(0.0003)
run.py:026  |  integrator = hoomd.md.integrate.nvt(group=_all, **integrator_kwargs)
run.py:000  |  
import hoomd
import hoomd.md
from hoomd.init import read_gsd

hoomd.context.initialize("")
system = read_gsd("/home/erjank_project/chrisjones/pekk-msibi-final/learning-runs/single-chains/workspace/b83dce273531102fa2c624e593dddb4c/components.gsd", frame=-1, time_step=0)

nl = hoomd.md.nlist.tree()
nl.reset_exclusions(exclusions=['1-2', '1-3'])

lj = hoomd.md.pair.lj(nlist=nl, r_cut=0)
lj.pair_coeff.set('E', 'E', epsilon=0, sigma=1, r_cut=0)
lj.pair_coeff.set('K', 'K', epsilon=0, sigma=1, r_cut=0)
lj.pair_coeff.set('E', 'K', epsilon=0, sigma=1, r_cut=0)
harmonic_bond = hoomd.md.bond.harmonic()
harmonic_bond.bond_coeff.set('E-K', k=850, r0=1.47)
harmonic_bond.bond_coeff.set('K-K', k=1450, r0=1.53)
atable = hoomd.md.angle.table(width=200)
atable.set_from_file('E-K-K', '/home/erjank_project/chrisjones/pekk-msibi-final/msibi-runs/angles-harmonic-bonds-6.5kT/potentials/angle_pot.E-K-K.txt')
atable.set_from_file('K-E-K', '/home/erjank_project/chrisjones/pekk-msibi-final/msibi-runs/angles-harmonic-bonds-6.5kT/potentials/angle_pot.K-E-K.txt')

_all = hoomd.group.all()
hoomd.md.integrate.mode_standard(0.0003)
integrator_kwargs = {'tau': 0.01, 'kT': 6.5}
integrator = hoomd.md.integrate.nvt(group=_all, **integrator_kwargs)


hoomd.dump.gsd(
run.py:037  |  hoomd.run(6000000)
** starting run **
Time 00:00:10 | Step 129899 / 6000000 | TPS 12989.9 | ETA 00:07:31
Time 00:00:20 | Step 264847 / 6000000 | TPS 13494.7 | ETA 00:07:04
Time 00:00:30 | Step 399901 / 6000000 | TPS 13505.3 | ETA 00:06:54
Time 00:00:40 | Step 534905 / 6000000 | TPS 13500.4 | ETA 00:06:44
Time 00:00:50 | Step 669412 / 6000000 | TPS 13450.7 | ETA 00:06:36
Time 00:01:00 | Step 804059 / 6000000 | TPS 13464.6 | ETA 00:06:25
Time 00:01:10 | Step 938787 / 6000000 | TPS 13472.8 | ETA 00:06:15
Time 00:01:20 | Step 1073428 / 6000000 | TPS 13464.1 | ETA 00:06:05
Time 00:01:30 | Step 1208280 / 6000000 | TPS 13485.2 | ETA 00:05:55
Time 00:01:40 | Step 1343295 / 6000000 | TPS 13501.5 | ETA 00:05:44
Time 00:01:50 | Step 1478253 / 6000000 | TPS 13495.8 | ETA 00:05:35
Time 00:02:00 | Step 1612778 / 6000000 | TPS 13452.5 | ETA 00:05:26
Time 00:02:10 | Step 1747520 / 6000000 | TPS 13474.1 | ETA 00:05:15
Time 00:02:20 | Step 1882210 / 6000000 | TPS 13469 | ETA 00:05:05
Time 00:02:30 | Step 2017023 / 6000000 | TPS 13481.2 | ETA 00:04:55
Time 00:02:40 | Step 2151818 / 6000000 | TPS 13479.4 | ETA 00:04:45
Time 00:02:50 | Step 2286536 / 6000000 | TPS 13471.8 | ETA 00:04:35
Time 00:03:00 | Step 2421246 / 6000000 | TPS 13470.9 | ETA 00:04:25
Time 00:03:10 | Step 2555935 / 6000000 | TPS 13468.8 | ETA 00:04:15
Time 00:03:20 | Step 2690785 / 6000000 | TPS 13484.9 | ETA 00:04:05
Time 00:03:30 | Step 2825580 / 6000000 | TPS 13479.5 | ETA 00:03:55
Time 00:03:40 | Step 2960280 / 6000000 | TPS 13469.9 | ETA 00:03:45
Time 00:03:50 | Step 3094913 / 6000000 | TPS 13463.2 | ETA 00:03:35
Time 00:04:00 | Step 3229508 / 6000000 | TPS 13459.4 | ETA 00:03:25
Time 00:04:10 | Step 3364109 / 6000000 | TPS 13460 | ETA 00:03:15
Time 00:04:20 | Step 3498737 / 6000000 | TPS 13462.8 | ETA 00:03:05
Time 00:04:30 | Step 3633368 / 6000000 | TPS 13463.1 | ETA 00:02:55
Time 00:04:40 | Step 3768238 / 6000000 | TPS 13486.9 | ETA 00:02:45
Time 00:04:50 | Step 3902997 / 6000000 | TPS 13475.9 | ETA 00:02:35
Time 00:05:00 | Step 4037622 / 6000000 | TPS 13462.4 | ETA 00:02:25
Time 00:05:10 | Step 4172355 / 6000000 | TPS 13473.2 | ETA 00:02:15
Time 00:05:20 | Step 4307013 / 6000000 | TPS 13465.7 | ETA 00:02:05
Time 00:05:30 | Step 4441677 / 6000000 | TPS 13466.4 | ETA 00:01:55
Time 00:05:40 | Step 4576313 / 6000000 | TPS 13463.6 | ETA 00:01:45
Time 00:05:50 | Step 4711111 / 6000000 | TPS 13479.7 | ETA 00:01:35
Time 00:06:00 | Step 4846181 / 6000000 | TPS 13506.9 | ETA 00:01:25
Time 00:06:10 | Step 4981097 / 6000000 | TPS 13491.5 | ETA 00:01:15
Time 00:06:20 | Step 5115959 / 6000000 | TPS 13486.2 | ETA 00:01:05
Time 00:06:30 | Step 5250785 / 6000000 | TPS 13482.5 | ETA 00:00:55
Time 00:06:40 | Step 5385387 / 6000000 | TPS 13460.2 | ETA 00:00:45
Time 00:06:50 | Step 5519999 / 6000000 | TPS 13461.1 | ETA 00:00:35
Time 00:07:00 | Step 5654815 / 6000000 | TPS 13481.6 | ETA 00:00:25
Time 00:07:10 | Step 5790098 / 6000000 | TPS 13528.3 | ETA 00:00:15
Time 00:07:20 | Step 5925432 / 6000000 | TPS 13533.4 | ETA 00:00:05
Time 00:07:25 | Step 6000000 / 6000000 | TPS 13549.1 | ETA 00:00:00
Average TPS: 13467.9
---------
-- Neighborlist stats:
20119 normal updates / 20000 forced updates / 0 dangerous updates
n_neigh_min: 0 / n_neigh_max: 0 / n_neigh_avg: 0
shortest rebuild period: 99
** run complete **
