HOOMD-blue 2.9.6 CUDA (10.2) DOUBLE HPMC_MIXED TBB SSE SSE2 SSE3 
Compiled: 03/17/2021
Copyright (c) 2009-2019 The Regents of the University of Michigan.
-----
You are using HOOMD-blue. Please cite the following:
* J A Anderson, J Glaser, and S C Glotzer. "HOOMD-blue: A Python package for
  high-performance molecular dynamics and hard particle Monte Carlo
  simulations", Computational Materials Science 173 (2020) 109363
-----
HOOMD-blue is running on the following GPU(s):
 [0]  Tesla P100-PCIE-12GB  56 SM_6.0 @ 1.33 GHz, 12198 MiB DRAM, MNG
run.py:007  |  system = read_gsd("/home/erjank_project/chrisjones/pekk-msibi-final/learning-runs/single-chains/workspace/b83dce273531102fa2c624e593dddb4c/components.gsd", frame=-1, time_step=0)
notice(2): Group "all" created containing 60 particles
run.py:009  |  nl = hoomd.md.nlist.tree()
-----
You are using tree neighbor lists. Please cite the following:
* M P Howard, J A Anderson, A Nikoubashman, S C Glotzer, and A Z
  Panagiotopoulos. "Efficient neighbor list calculation for molecular simulation
  of colloidal systems using graphics processing units", Computer Physics
  Communications 203 (2016) 45--52
* M P Howard, A Statt, F Madutsa, T M Truskett, and A Z Panagiotopoulos.
  "Quantized bounding volume hierarchies for neighbor search in molecular
  simulations on graphics processing units", Computational Materials Science 164
  (2019) 139--146
-----
run.py:010  |  nl.reset_exclusions(exclusions=['1-2', '1-3'])
notice(2): -- Neighborlist exclusion statistics -- :
notice(2): Particles with 2 exclusions             : 2
notice(2): Particles with 3 exclusions             : 2
notice(2): Particles with 4 exclusions             : 56
notice(2): Neighbors included by diameter          : no
notice(2): Neighbors excluded when in the same body: no
run.py:012  |  lj = hoomd.md.pair.lj(nlist=nl, r_cut=0)
run.py:013  |  lj.pair_coeff.set('E', 'E', epsilon=0, sigma=1, r_cut=0)
run.py:014  |  lj.pair_coeff.set('K', 'K', epsilon=0, sigma=1, r_cut=0)
run.py:015  |  lj.pair_coeff.set('E', 'K', epsilon=0, sigma=1, r_cut=0)
run.py:016  |  harmonic_bond = hoomd.md.bond.harmonic()
run.py:017  |  harmonic_bond.bond_coeff.set('E-K', k=850, r0=1.47)
run.py:018  |  harmonic_bond.bond_coeff.set('K-K', k=1450, r0=1.53)
run.py:019  |  atable = hoomd.md.angle.table(width=200)
run.py:020  |  atable.set_from_file('E-K-K', '/home/erjank_project/chrisjones/pekk-msibi-final/msibi-runs/angles-harmonic-bonds-6.5kT/potentials/angle_pot.E-K-K.txt')
run.py:021  |  atable.set_from_file('K-E-K', '/home/erjank_project/chrisjones/pekk-msibi-final/msibi-runs/angles-harmonic-bonds-6.5kT/potentials/angle_pot.K-E-K.txt')
run.py:023  |  _all = hoomd.group.all()
run.py:024  |  hoomd.md.integrate.mode_standard(0.0003)
run.py:026  |  integrator = hoomd.md.integrate.nvt(group=_all, **integrator_kwargs)
run.py:000  |  
import hoomd
import hoomd.md
from hoomd.init import read_gsd

hoomd.context.initialize("")
system = read_gsd("/home/erjank_project/chrisjones/pekk-msibi-final/learning-runs/single-chains/workspace/b83dce273531102fa2c624e593dddb4c/components.gsd", frame=-1, time_step=0)

nl = hoomd.md.nlist.tree()
nl.reset_exclusions(exclusions=['1-2', '1-3'])

lj = hoomd.md.pair.lj(nlist=nl, r_cut=0)
lj.pair_coeff.set('E', 'E', epsilon=0, sigma=1, r_cut=0)
lj.pair_coeff.set('K', 'K', epsilon=0, sigma=1, r_cut=0)
lj.pair_coeff.set('E', 'K', epsilon=0, sigma=1, r_cut=0)
harmonic_bond = hoomd.md.bond.harmonic()
harmonic_bond.bond_coeff.set('E-K', k=850, r0=1.47)
harmonic_bond.bond_coeff.set('K-K', k=1450, r0=1.53)
atable = hoomd.md.angle.table(width=200)
atable.set_from_file('E-K-K', '/home/erjank_project/chrisjones/pekk-msibi-final/msibi-runs/angles-harmonic-bonds-6.5kT/potentials/angle_pot.E-K-K.txt')
atable.set_from_file('K-E-K', '/home/erjank_project/chrisjones/pekk-msibi-final/msibi-runs/angles-harmonic-bonds-6.5kT/potentials/angle_pot.K-E-K.txt')

_all = hoomd.group.all()
hoomd.md.integrate.mode_standard(0.0003)
integrator_kwargs = {'tau': 0.01, 'kT': 6.5}
integrator = hoomd.md.integrate.nvt(group=_all, **integrator_kwargs)


hoomd.dump.gsd(
run.py:037  |  hoomd.run(6000000)
** starting run **
Time 00:00:10 | Step 127713 / 6000000 | TPS 12771.2 | ETA 00:07:39
Time 00:00:20 | Step 260320 / 6000000 | TPS 13260.7 | ETA 00:07:12
Time 00:00:30 | Step 393047 / 6000000 | TPS 13272.7 | ETA 00:07:02
Time 00:00:40 | Step 525806 / 6000000 | TPS 13275.9 | ETA 00:06:52
Time 00:00:50 | Step 658683 / 6000000 | TPS 13287.7 | ETA 00:06:41
Time 00:01:00 | Step 791560 / 6000000 | TPS 13287.6 | ETA 00:06:31
Time 00:01:10 | Step 924285 / 6000000 | TPS 13272.4 | ETA 00:06:22
Time 00:01:20 | Step 1057095 / 6000000 | TPS 13281 | ETA 00:06:12
Time 00:01:30 | Step 1189943 / 6000000 | TPS 13284.8 | ETA 00:06:02
Time 00:01:40 | Step 1322627 / 6000000 | TPS 13268.4 | ETA 00:05:52
Time 00:01:50 | Step 1455278 / 6000000 | TPS 13265.1 | ETA 00:05:42
Time 00:02:00 | Step 1587909 / 6000000 | TPS 13263.1 | ETA 00:05:32
Time 00:02:10 | Step 1720338 / 6000000 | TPS 13242.9 | ETA 00:05:23
Time 00:02:20 | Step 1852945 / 6000000 | TPS 13260.6 | ETA 00:05:12
Time 00:02:30 | Step 1985676 / 6000000 | TPS 13273 | ETA 00:05:02
Time 00:02:40 | Step 2118475 / 6000000 | TPS 13279.8 | ETA 00:04:52
Time 00:02:50 | Step 2251291 / 6000000 | TPS 13281.6 | ETA 00:04:42
Time 00:03:00 | Step 2383976 / 6000000 | TPS 13268.4 | ETA 00:04:32
Time 00:03:10 | Step 2516378 / 6000000 | TPS 13240.2 | ETA 00:04:23
Time 00:03:20 | Step 2648951 / 6000000 | TPS 13257.2 | ETA 00:04:12
Time 00:03:30 | Step 2781649 / 6000000 | TPS 13269.8 | ETA 00:04:02
Time 00:03:40 | Step 2914216 / 6000000 | TPS 13256.7 | ETA 00:03:52
Time 00:03:50 | Step 3046853 / 6000000 | TPS 13263.7 | ETA 00:03:42
Time 00:04:00 | Step 3179247 / 6000000 | TPS 13239.4 | ETA 00:03:33
Time 00:04:10 | Step 3311753 / 6000000 | TPS 13250.5 | ETA 00:03:22
Time 00:04:20 | Step 3444316 / 6000000 | TPS 13256.3 | ETA 00:03:12
Time 00:04:30 | Step 3577185 / 6000000 | TPS 13286.9 | ETA 00:03:02
Time 00:04:40 | Step 3709808 / 6000000 | TPS 13262.2 | ETA 00:02:52
Time 00:04:50 | Step 3842695 / 6000000 | TPS 13288.7 | ETA 00:02:42
Time 00:05:00 | Step 3975525 / 6000000 | TPS 13282.9 | ETA 00:02:32
Time 00:05:10 | Step 4108413 / 6000000 | TPS 13288.7 | ETA 00:02:22
Time 00:05:20 | Step 4241201 / 6000000 | TPS 13278.7 | ETA 00:02:12
Time 00:05:30 | Step 4374008 / 6000000 | TPS 13280.6 | ETA 00:02:02
Time 00:05:40 | Step 4506813 / 6000000 | TPS 13280.4 | ETA 00:01:52
Time 00:05:50 | Step 4639511 / 6000000 | TPS 13269.8 | ETA 00:01:42
Time 00:06:00 | Step 4772184 / 6000000 | TPS 13267.3 | ETA 00:01:32
Time 00:06:10 | Step 4904778 / 6000000 | TPS 13259.3 | ETA 00:01:22
Time 00:06:20 | Step 5037421 / 6000000 | TPS 13264.3 | ETA 00:01:12
Time 00:06:30 | Step 5170072 / 6000000 | TPS 13265.1 | ETA 00:01:02
Time 00:06:40 | Step 5302471 / 6000000 | TPS 13239.8 | ETA 00:00:52
Time 00:06:50 | Step 5435002 / 6000000 | TPS 13253 | ETA 00:00:42
Time 00:07:00 | Step 5567633 / 6000000 | TPS 13263.1 | ETA 00:00:32
Time 00:07:10 | Step 5700318 / 6000000 | TPS 13268.5 | ETA 00:00:22
Time 00:07:20 | Step 5833185 / 6000000 | TPS 13286.7 | ETA 00:00:12
Time 00:07:30 | Step 5966030 / 6000000 | TPS 13284.5 | ETA 00:00:02
Time 00:07:32 | Step 6000000 / 6000000 | TPS 13290 | ETA 00:00:00
Average TPS: 13258
---------
-- Neighborlist stats:
20104 normal updates / 20000 forced updates / 0 dangerous updates
n_neigh_min: 0 / n_neigh_max: 0 / n_neigh_avg: 0
shortest rebuild period: 99
** run complete **
