HOOMD-blue 2.9.6 CUDA (10.2) DOUBLE HPMC_MIXED TBB SSE SSE2 SSE3 
Compiled: 03/17/2021
Copyright (c) 2009-2019 The Regents of the University of Michigan.
-----
You are using HOOMD-blue. Please cite the following:
* J A Anderson, J Glaser, and S C Glotzer. "HOOMD-blue: A Python package for
  high-performance molecular dynamics and hard particle Monte Carlo
  simulations", Computational Materials Science 173 (2020) 109363
-----
HOOMD-blue is running on the following GPU(s):
 [0]  Tesla P100-PCIE-12GB  56 SM_6.0 @ 1.33 GHz, 12198 MiB DRAM, MNG
run.py:007  |  system = read_gsd("/home/erjank_project/chrisjones/pekk-msibi-final/learning-runs/single-chains/workspace/b83dce273531102fa2c624e593dddb4c/components.gsd", frame=-1, time_step=0)
notice(2): Group "all" created containing 60 particles
run.py:009  |  nl = hoomd.md.nlist.tree()
-----
You are using tree neighbor lists. Please cite the following:
* M P Howard, J A Anderson, A Nikoubashman, S C Glotzer, and A Z
  Panagiotopoulos. "Efficient neighbor list calculation for molecular simulation
  of colloidal systems using graphics processing units", Computer Physics
  Communications 203 (2016) 45--52
* M P Howard, A Statt, F Madutsa, T M Truskett, and A Z Panagiotopoulos.
  "Quantized bounding volume hierarchies for neighbor search in molecular
  simulations on graphics processing units", Computational Materials Science 164
  (2019) 139--146
-----
run.py:010  |  nl.reset_exclusions(exclusions=['1-2', '1-3'])
notice(2): -- Neighborlist exclusion statistics -- :
notice(2): Particles with 2 exclusions             : 2
notice(2): Particles with 3 exclusions             : 2
notice(2): Particles with 4 exclusions             : 56
notice(2): Neighbors included by diameter          : no
notice(2): Neighbors excluded when in the same body: no
run.py:012  |  lj = hoomd.md.pair.lj(nlist=nl, r_cut=0)
run.py:013  |  lj.pair_coeff.set('E', 'E', epsilon=0, sigma=1, r_cut=0)
run.py:014  |  lj.pair_coeff.set('K', 'K', epsilon=0, sigma=1, r_cut=0)
run.py:015  |  lj.pair_coeff.set('E', 'K', epsilon=0, sigma=1, r_cut=0)
run.py:016  |  harmonic_bond = hoomd.md.bond.harmonic()
run.py:017  |  harmonic_bond.bond_coeff.set('E-K', k=850, r0=1.47)
run.py:018  |  harmonic_bond.bond_coeff.set('K-K', k=1450, r0=1.53)
run.py:019  |  atable = hoomd.md.angle.table(width=200)
run.py:020  |  atable.set_from_file('E-K-K', '/home/erjank_project/chrisjones/pekk-msibi-final/msibi-runs/angles-harmonic-bonds-6.5kT/potentials/angle_pot.E-K-K.txt')
run.py:021  |  atable.set_from_file('K-E-K', '/home/erjank_project/chrisjones/pekk-msibi-final/msibi-runs/angles-harmonic-bonds-6.5kT/potentials/angle_pot.K-E-K.txt')
run.py:023  |  _all = hoomd.group.all()
run.py:024  |  hoomd.md.integrate.mode_standard(0.0003)
run.py:026  |  integrator = hoomd.md.integrate.nvt(group=_all, **integrator_kwargs)
run.py:000  |  
import hoomd
import hoomd.md
from hoomd.init import read_gsd

hoomd.context.initialize("")
system = read_gsd("/home/erjank_project/chrisjones/pekk-msibi-final/learning-runs/single-chains/workspace/b83dce273531102fa2c624e593dddb4c/components.gsd", frame=-1, time_step=0)

nl = hoomd.md.nlist.tree()
nl.reset_exclusions(exclusions=['1-2', '1-3'])

lj = hoomd.md.pair.lj(nlist=nl, r_cut=0)
lj.pair_coeff.set('E', 'E', epsilon=0, sigma=1, r_cut=0)
lj.pair_coeff.set('K', 'K', epsilon=0, sigma=1, r_cut=0)
lj.pair_coeff.set('E', 'K', epsilon=0, sigma=1, r_cut=0)
harmonic_bond = hoomd.md.bond.harmonic()
harmonic_bond.bond_coeff.set('E-K', k=850, r0=1.47)
harmonic_bond.bond_coeff.set('K-K', k=1450, r0=1.53)
atable = hoomd.md.angle.table(width=200)
atable.set_from_file('E-K-K', '/home/erjank_project/chrisjones/pekk-msibi-final/msibi-runs/angles-harmonic-bonds-6.5kT/potentials/angle_pot.E-K-K.txt')
atable.set_from_file('K-E-K', '/home/erjank_project/chrisjones/pekk-msibi-final/msibi-runs/angles-harmonic-bonds-6.5kT/potentials/angle_pot.K-E-K.txt')

_all = hoomd.group.all()
hoomd.md.integrate.mode_standard(0.0003)
integrator_kwargs = {'tau': 0.01, 'kT': 6.5}
integrator = hoomd.md.integrate.nvt(group=_all, **integrator_kwargs)


hoomd.dump.gsd(
run.py:037  |  hoomd.run(6000000)
** starting run **
Time 00:00:10 | Step 128121 / 6000000 | TPS 12812.1 | ETA 00:07:38
Time 00:00:20 | Step 261070 / 6000000 | TPS 13294.8 | ETA 00:07:11
Time 00:00:30 | Step 393962 / 6000000 | TPS 13289.2 | ETA 00:07:01
Time 00:00:40 | Step 526778 / 6000000 | TPS 13281.5 | ETA 00:06:52
Time 00:00:50 | Step 659536 / 6000000 | TPS 13275.7 | ETA 00:06:42
Time 00:01:00 | Step 792245 / 6000000 | TPS 13270.9 | ETA 00:06:32
Time 00:01:10 | Step 924815 / 6000000 | TPS 13257 | ETA 00:06:22
Time 00:01:20 | Step 1057475 / 6000000 | TPS 13266 | ETA 00:06:12
Time 00:01:30 | Step 1189793 / 6000000 | TPS 13231.7 | ETA 00:06:03
Time 00:01:40 | Step 1322310 / 6000000 | TPS 13251.6 | ETA 00:05:52
Time 00:01:50 | Step 1455173 / 6000000 | TPS 13286.2 | ETA 00:05:42
Time 00:02:00 | Step 1587995 / 6000000 | TPS 13282.2 | ETA 00:05:32
Time 00:02:10 | Step 1720427 / 6000000 | TPS 13243.2 | ETA 00:05:23
Time 00:02:20 | Step 1853071 / 6000000 | TPS 13264.3 | ETA 00:05:12
Time 00:02:30 | Step 1985789 / 6000000 | TPS 13271.8 | ETA 00:05:02
Time 00:02:40 | Step 2118360 / 6000000 | TPS 13257 | ETA 00:04:52
Time 00:02:50 | Step 2251014 / 6000000 | TPS 13265.4 | ETA 00:04:42
Time 00:03:00 | Step 2383807 / 6000000 | TPS 13279.3 | ETA 00:04:32
Time 00:03:10 | Step 2516452 / 6000000 | TPS 13264.4 | ETA 00:04:22
Time 00:03:20 | Step 2649058 / 6000000 | TPS 13260.6 | ETA 00:04:12
Time 00:03:30 | Step 2781788 / 6000000 | TPS 13272.9 | ETA 00:04:02
Time 00:03:40 | Step 2914436 / 6000000 | TPS 13264.7 | ETA 00:03:52
Time 00:03:50 | Step 3047701 / 6000000 | TPS 13325.9 | ETA 00:03:41
Time 00:04:00 | Step 3180854 / 6000000 | TPS 13315.2 | ETA 00:03:31
Time 00:04:10 | Step 3313940 / 6000000 | TPS 13308.5 | ETA 00:03:21
Time 00:04:20 | Step 3447186 / 6000000 | TPS 13324.5 | ETA 00:03:11
Time 00:04:30 | Step 3580403 / 6000000 | TPS 13321.7 | ETA 00:03:01
Time 00:04:40 | Step 3713593 / 6000000 | TPS 13318.9 | ETA 00:02:51
Time 00:04:50 | Step 3846667 / 6000000 | TPS 13307.3 | ETA 00:02:41
Time 00:05:00 | Step 3979440 / 6000000 | TPS 13277.2 | ETA 00:02:32
Time 00:05:10 | Step 4112516 / 6000000 | TPS 13307.6 | ETA 00:02:21
Time 00:05:20 | Step 4245734 / 6000000 | TPS 13321.7 | ETA 00:02:11
Time 00:05:30 | Step 4379066 / 6000000 | TPS 13333.1 | ETA 00:02:01
Time 00:05:40 | Step 4512285 / 6000000 | TPS 13321.8 | ETA 00:01:51
Time 00:05:50 | Step 4645516 / 6000000 | TPS 13323.1 | ETA 00:01:41
Time 00:06:00 | Step 4778581 / 6000000 | TPS 13306.5 | ETA 00:01:31
Time 00:06:10 | Step 4911739 / 6000000 | TPS 13315.8 | ETA 00:01:21
Time 00:06:20 | Step 5044832 / 6000000 | TPS 13309.2 | ETA 00:01:11
Time 00:06:30 | Step 5177902 / 6000000 | TPS 13306.9 | ETA 00:01:01
Time 00:06:40 | Step 5311158 / 6000000 | TPS 13325.6 | ETA 00:00:51
Time 00:06:50 | Step 5444491 / 6000000 | TPS 13333.3 | ETA 00:00:41
Time 00:07:00 | Step 5577889 / 6000000 | TPS 13339.7 | ETA 00:00:31
Time 00:07:10 | Step 5711204 / 6000000 | TPS 13331.4 | ETA 00:00:21
Time 00:07:20 | Step 5844305 / 6000000 | TPS 13310 | ETA 00:00:11
Time 00:07:30 | Step 5977694 / 6000000 | TPS 13338.9 | ETA 00:00:01
Time 00:07:31 | Step 6000000 / 6000000 | TPS 13363.9 | ETA 00:00:00
Average TPS: 13284
---------
-- Neighborlist stats:
20105 normal updates / 20000 forced updates / 0 dangerous updates
n_neigh_min: 0 / n_neigh_max: 0 / n_neigh_avg: 0
shortest rebuild period: 99
** run complete **
