HOOMD-blue 2.9.6 CUDA (10.2) DOUBLE HPMC_MIXED TBB SSE SSE2 SSE3 
Compiled: 03/17/2021
Copyright (c) 2009-2019 The Regents of the University of Michigan.
-----
You are using HOOMD-blue. Please cite the following:
* J A Anderson, J Glaser, and S C Glotzer. "HOOMD-blue: A Python package for
  high-performance molecular dynamics and hard particle Monte Carlo
  simulations", Computational Materials Science 173 (2020) 109363
-----
HOOMD-blue is running on the following GPU(s):
 [0]  Tesla P100-PCIE-12GB  56 SM_6.0 @ 1.33 GHz, 12198 MiB DRAM, MNG
run.py:007  |  system = read_gsd("/home/erjank_project/chrisjones/pekk-msibi-final/learning-runs/single-chains/workspace/b83dce273531102fa2c624e593dddb4c/components.gsd", frame=-1, time_step=0)
notice(2): Group "all" created containing 60 particles
run.py:009  |  nl = hoomd.md.nlist.tree()
-----
You are using tree neighbor lists. Please cite the following:
* M P Howard, J A Anderson, A Nikoubashman, S C Glotzer, and A Z
  Panagiotopoulos. "Efficient neighbor list calculation for molecular simulation
  of colloidal systems using graphics processing units", Computer Physics
  Communications 203 (2016) 45--52
* M P Howard, A Statt, F Madutsa, T M Truskett, and A Z Panagiotopoulos.
  "Quantized bounding volume hierarchies for neighbor search in molecular
  simulations on graphics processing units", Computational Materials Science 164
  (2019) 139--146
-----
run.py:010  |  nl.reset_exclusions(exclusions=['1-2', '1-3'])
notice(2): -- Neighborlist exclusion statistics -- :
notice(2): Particles with 2 exclusions             : 2
notice(2): Particles with 3 exclusions             : 2
notice(2): Particles with 4 exclusions             : 56
notice(2): Neighbors included by diameter          : no
notice(2): Neighbors excluded when in the same body: no
run.py:012  |  lj = hoomd.md.pair.lj(nlist=nl, r_cut=0)
run.py:013  |  lj.pair_coeff.set('E', 'E', epsilon=0, sigma=1, r_cut=0)
run.py:014  |  lj.pair_coeff.set('K', 'K', epsilon=0, sigma=1, r_cut=0)
run.py:015  |  lj.pair_coeff.set('E', 'K', epsilon=0, sigma=1, r_cut=0)
run.py:016  |  harmonic_bond = hoomd.md.bond.harmonic()
run.py:017  |  harmonic_bond.bond_coeff.set('E-K', k=850, r0=1.47)
run.py:018  |  harmonic_bond.bond_coeff.set('K-K', k=1450, r0=1.53)
run.py:019  |  atable = hoomd.md.angle.table(width=200)
run.py:020  |  atable.set_from_file('E-K-K', '/home/erjank_project/chrisjones/pekk-msibi-final/msibi-runs/angles-harmonic-bonds-6.5kT/potentials/angle_pot.E-K-K.txt')
run.py:021  |  atable.set_from_file('K-E-K', '/home/erjank_project/chrisjones/pekk-msibi-final/msibi-runs/angles-harmonic-bonds-6.5kT/potentials/angle_pot.K-E-K.txt')
run.py:023  |  _all = hoomd.group.all()
run.py:024  |  hoomd.md.integrate.mode_standard(0.0003)
run.py:026  |  integrator = hoomd.md.integrate.nvt(group=_all, **integrator_kwargs)
run.py:000  |  
import hoomd
import hoomd.md
from hoomd.init import read_gsd

hoomd.context.initialize("")
system = read_gsd("/home/erjank_project/chrisjones/pekk-msibi-final/learning-runs/single-chains/workspace/b83dce273531102fa2c624e593dddb4c/components.gsd", frame=-1, time_step=0)

nl = hoomd.md.nlist.tree()
nl.reset_exclusions(exclusions=['1-2', '1-3'])

lj = hoomd.md.pair.lj(nlist=nl, r_cut=0)
lj.pair_coeff.set('E', 'E', epsilon=0, sigma=1, r_cut=0)
lj.pair_coeff.set('K', 'K', epsilon=0, sigma=1, r_cut=0)
lj.pair_coeff.set('E', 'K', epsilon=0, sigma=1, r_cut=0)
harmonic_bond = hoomd.md.bond.harmonic()
harmonic_bond.bond_coeff.set('E-K', k=850, r0=1.47)
harmonic_bond.bond_coeff.set('K-K', k=1450, r0=1.53)
atable = hoomd.md.angle.table(width=200)
atable.set_from_file('E-K-K', '/home/erjank_project/chrisjones/pekk-msibi-final/msibi-runs/angles-harmonic-bonds-6.5kT/potentials/angle_pot.E-K-K.txt')
atable.set_from_file('K-E-K', '/home/erjank_project/chrisjones/pekk-msibi-final/msibi-runs/angles-harmonic-bonds-6.5kT/potentials/angle_pot.K-E-K.txt')

_all = hoomd.group.all()
hoomd.md.integrate.mode_standard(0.0003)
integrator_kwargs = {'tau': 0.01, 'kT': 6.5}
integrator = hoomd.md.integrate.nvt(group=_all, **integrator_kwargs)


hoomd.dump.gsd(
run.py:037  |  hoomd.run(6000000)
** starting run **
Time 00:00:10 | Step 128995 / 6000000 | TPS 12899.5 | ETA 00:07:35
Time 00:00:20 | Step 263129 / 6000000 | TPS 13413.4 | ETA 00:07:07
Time 00:00:30 | Step 397386 / 6000000 | TPS 13425.6 | ETA 00:06:57
Time 00:00:40 | Step 531622 / 6000000 | TPS 13423.6 | ETA 00:06:47
Time 00:00:50 | Step 665938 / 6000000 | TPS 13431.5 | ETA 00:06:37
Time 00:01:00 | Step 800320 / 6000000 | TPS 13438.2 | ETA 00:06:26
Time 00:01:10 | Step 934701 / 6000000 | TPS 13438.1 | ETA 00:06:16
Time 00:01:20 | Step 1069310 / 6000000 | TPS 13460.9 | ETA 00:06:06
Time 00:01:30 | Step 1203661 / 6000000 | TPS 13435 | ETA 00:05:57
Time 00:01:40 | Step 1337788 / 6000000 | TPS 13412.7 | ETA 00:05:47
Time 00:01:50 | Step 1471984 / 6000000 | TPS 13419.5 | ETA 00:05:37
Time 00:02:00 | Step 1606058 / 6000000 | TPS 13407.3 | ETA 00:05:27
Time 00:02:10 | Step 1740379 / 6000000 | TPS 13432.1 | ETA 00:05:17
Time 00:02:20 | Step 1874800 / 6000000 | TPS 13442 | ETA 00:05:06
Time 00:02:30 | Step 2009128 / 6000000 | TPS 13432.8 | ETA 00:04:57
Time 00:02:40 | Step 2143415 / 6000000 | TPS 13428.7 | ETA 00:04:47
Time 00:02:50 | Step 2277676 / 6000000 | TPS 13426 | ETA 00:04:37
Time 00:03:00 | Step 2411915 / 6000000 | TPS 13423.9 | ETA 00:04:27
Time 00:03:10 | Step 2546216 / 6000000 | TPS 13430.1 | ETA 00:04:17
Time 00:03:20 | Step 2680505 / 6000000 | TPS 13428.8 | ETA 00:04:07
Time 00:03:30 | Step 2814723 / 6000000 | TPS 13421.8 | ETA 00:03:57
Time 00:03:40 | Step 2948803 / 6000000 | TPS 13407.9 | ETA 00:03:47
Time 00:03:50 | Step 3082881 / 6000000 | TPS 13407.7 | ETA 00:03:37
Time 00:04:00 | Step 3216998 / 6000000 | TPS 13411.6 | ETA 00:03:27
Time 00:04:10 | Step 3351470 / 6000000 | TPS 13447.1 | ETA 00:03:16
Time 00:04:20 | Step 3486389 / 6000000 | TPS 13491.9 | ETA 00:03:06
Time 00:04:30 | Step 3621574 / 6000000 | TPS 13518.4 | ETA 00:02:55
Time 00:04:40 | Step 3756777 / 6000000 | TPS 13520.3 | ETA 00:02:45
Time 00:04:50 | Step 3892132 / 6000000 | TPS 13535.4 | ETA 00:02:35
Time 00:05:00 | Step 4027339 / 6000000 | TPS 13520.7 | ETA 00:02:25
Time 00:05:10 | Step 4162613 / 6000000 | TPS 13527.3 | ETA 00:02:15
Time 00:05:20 | Step 4297916 / 6000000 | TPS 13530.3 | ETA 00:02:05
Time 00:05:30 | Step 4433221 / 6000000 | TPS 13530.4 | ETA 00:01:55
Time 00:05:40 | Step 4568251 / 6000000 | TPS 13502.9 | ETA 00:01:46
Time 00:05:50 | Step 4703243 / 6000000 | TPS 13499.2 | ETA 00:01:36
Time 00:06:00 | Step 4838098 / 6000000 | TPS 13485.5 | ETA 00:01:26
Time 00:06:10 | Step 4973152 / 6000000 | TPS 13505.4 | ETA 00:01:16
Time 00:06:20 | Step 5108174 / 6000000 | TPS 13502.1 | ETA 00:01:06
Time 00:06:30 | Step 5243347 / 6000000 | TPS 13517.3 | ETA 00:00:55
Time 00:06:40 | Step 5378403 / 6000000 | TPS 13505.6 | ETA 00:00:46
Time 00:06:50 | Step 5513746 / 6000000 | TPS 13534.3 | ETA 00:00:35
Time 00:07:00 | Step 5648895 / 6000000 | TPS 13514.9 | ETA 00:00:25
Time 00:07:10 | Step 5783965 / 6000000 | TPS 13506.9 | ETA 00:00:15
Time 00:07:20 | Step 5919109 / 6000000 | TPS 13514.3 | ETA 00:00:05
Time 00:07:26 | Step 6000000 / 6000000 | TPS 13531.1 | ETA 00:00:00
Average TPS: 13453.5
---------
-- Neighborlist stats:
20089 normal updates / 20000 forced updates / 0 dangerous updates
n_neigh_min: 0 / n_neigh_max: 0 / n_neigh_avg: 0
shortest rebuild period: 99
** run complete **
