HOOMD-blue 2.9.6 CUDA (10.2) DOUBLE HPMC_MIXED TBB SSE SSE2 SSE3 
Compiled: 03/17/2021
Copyright (c) 2009-2019 The Regents of the University of Michigan.
-----
You are using HOOMD-blue. Please cite the following:
* J A Anderson, J Glaser, and S C Glotzer. "HOOMD-blue: A Python package for
  high-performance molecular dynamics and hard particle Monte Carlo
  simulations", Computational Materials Science 173 (2020) 109363
-----
HOOMD-blue is running on the following GPU(s):
 [0]  Tesla P100-PCIE-12GB  56 SM_6.0 @ 1.33 GHz, 12198 MiB DRAM, MNG
run.py:007  |  system = read_gsd("/home/erjank_project/chrisjones/pekk-msibi-final/learning-runs/single-chains/workspace/38e28bcc5ef00d32fd078c86ad2807ba/components.gsd", frame=-1, time_step=0)
notice(2): Group "all" created containing 60 particles
run.py:009  |  nl = hoomd.md.nlist.tree()
-----
You are using tree neighbor lists. Please cite the following:
* M P Howard, J A Anderson, A Nikoubashman, S C Glotzer, and A Z
  Panagiotopoulos. "Efficient neighbor list calculation for molecular simulation
  of colloidal systems using graphics processing units", Computer Physics
  Communications 203 (2016) 45--52
* M P Howard, A Statt, F Madutsa, T M Truskett, and A Z Panagiotopoulos.
  "Quantized bounding volume hierarchies for neighbor search in molecular
  simulations on graphics processing units", Computational Materials Science 164
  (2019) 139--146
-----
run.py:010  |  nl.reset_exclusions(exclusions=['1-2', '1-3'])
notice(2): -- Neighborlist exclusion statistics -- :
notice(2): Particles with 2 exclusions             : 2
notice(2): Particles with 3 exclusions             : 2
notice(2): Particles with 4 exclusions             : 56
notice(2): Neighbors included by diameter          : no
notice(2): Neighbors excluded when in the same body: no
run.py:012  |  lj = hoomd.md.pair.lj(nlist=nl, r_cut=0)
run.py:013  |  lj.pair_coeff.set('E', 'E', epsilon=0, sigma=1, r_cut=0)
run.py:014  |  lj.pair_coeff.set('K', 'K', epsilon=0, sigma=1, r_cut=0)
run.py:015  |  lj.pair_coeff.set('E', 'K', epsilon=0, sigma=1, r_cut=0)
run.py:016  |  harmonic_bond = hoomd.md.bond.harmonic()
run.py:017  |  harmonic_bond.bond_coeff.set('E-K', k=850, r0=1.47)
run.py:018  |  harmonic_bond.bond_coeff.set('K-K', k=1450, r0=1.53)
run.py:019  |  atable = hoomd.md.angle.table(width=200)
run.py:020  |  atable.set_from_file('E-K-K', '/home/erjank_project/chrisjones/pekk-msibi-final/msibi-runs/angles-harmonic-bonds-6.5kT/potentials/angle_pot.E-K-K.txt')
run.py:021  |  atable.set_from_file('K-E-K', '/home/erjank_project/chrisjones/pekk-msibi-final/msibi-runs/angles-harmonic-bonds-6.5kT/potentials/angle_pot.K-E-K.txt')
run.py:023  |  _all = hoomd.group.all()
run.py:024  |  hoomd.md.integrate.mode_standard(0.0003)
run.py:026  |  integrator = hoomd.md.integrate.nvt(group=_all, **integrator_kwargs)
run.py:000  |  
import hoomd
import hoomd.md
from hoomd.init import read_gsd

hoomd.context.initialize("")
system = read_gsd("/home/erjank_project/chrisjones/pekk-msibi-final/learning-runs/single-chains/workspace/38e28bcc5ef00d32fd078c86ad2807ba/components.gsd", frame=-1, time_step=0)

nl = hoomd.md.nlist.tree()
nl.reset_exclusions(exclusions=['1-2', '1-3'])

lj = hoomd.md.pair.lj(nlist=nl, r_cut=0)
lj.pair_coeff.set('E', 'E', epsilon=0, sigma=1, r_cut=0)
lj.pair_coeff.set('K', 'K', epsilon=0, sigma=1, r_cut=0)
lj.pair_coeff.set('E', 'K', epsilon=0, sigma=1, r_cut=0)
harmonic_bond = hoomd.md.bond.harmonic()
harmonic_bond.bond_coeff.set('E-K', k=850, r0=1.47)
harmonic_bond.bond_coeff.set('K-K', k=1450, r0=1.53)
atable = hoomd.md.angle.table(width=200)
atable.set_from_file('E-K-K', '/home/erjank_project/chrisjones/pekk-msibi-final/msibi-runs/angles-harmonic-bonds-6.5kT/potentials/angle_pot.E-K-K.txt')
atable.set_from_file('K-E-K', '/home/erjank_project/chrisjones/pekk-msibi-final/msibi-runs/angles-harmonic-bonds-6.5kT/potentials/angle_pot.K-E-K.txt')

_all = hoomd.group.all()
hoomd.md.integrate.mode_standard(0.0003)
integrator_kwargs = {'tau': 0.01, 'kT': 6.5}
integrator = hoomd.md.integrate.nvt(group=_all, **integrator_kwargs)


hoomd.dump.gsd(
run.py:037  |  hoomd.run(6000000)
** starting run **
Time 00:00:10 | Step 129281 / 6000000 | TPS 12928 | ETA 00:07:34
Time 00:00:20 | Step 263744 / 6000000 | TPS 13446.2 | ETA 00:07:06
Time 00:00:30 | Step 398288 / 6000000 | TPS 13454.4 | ETA 00:06:56
Time 00:00:40 | Step 532914 / 6000000 | TPS 13462.5 | ETA 00:06:46
Time 00:00:50 | Step 667636 / 6000000 | TPS 13472.2 | ETA 00:06:35
Time 00:01:00 | Step 802501 / 6000000 | TPS 13486 | ETA 00:06:25
Time 00:01:10 | Step 936777 / 6000000 | TPS 13427.6 | ETA 00:06:17
Time 00:01:20 | Step 1071487 / 6000000 | TPS 13470.7 | ETA 00:06:05
Time 00:01:30 | Step 1206004 / 6000000 | TPS 13451.6 | ETA 00:05:56
Time 00:01:40 | Step 1340765 / 6000000 | TPS 13476 | ETA 00:05:45
Time 00:01:50 | Step 1475653 / 6000000 | TPS 13488.8 | ETA 00:05:35
Time 00:02:00 | Step 1610281 / 6000000 | TPS 13462.7 | ETA 00:05:26
Time 00:02:10 | Step 1744712 / 6000000 | TPS 13443 | ETA 00:05:16
Time 00:02:20 | Step 1879413 / 6000000 | TPS 13470.1 | ETA 00:05:05
Time 00:02:30 | Step 2013786 / 6000000 | TPS 13437.3 | ETA 00:04:56
Time 00:02:40 | Step 2148429 / 6000000 | TPS 13464.2 | ETA 00:04:46
Time 00:02:50 | Step 2283021 / 6000000 | TPS 13459.1 | ETA 00:04:36
Time 00:03:00 | Step 2417439 / 6000000 | TPS 13441.8 | ETA 00:04:26
Time 00:03:10 | Step 2551923 / 6000000 | TPS 13448.4 | ETA 00:04:16
Time 00:03:20 | Step 2686361 / 6000000 | TPS 13443.7 | ETA 00:04:06
Time 00:03:30 | Step 2820679 / 6000000 | TPS 13431.7 | ETA 00:03:56
Time 00:03:40 | Step 2955056 / 6000000 | TPS 13437.7 | ETA 00:03:46
Time 00:03:50 | Step 3089478 / 6000000 | TPS 13442.2 | ETA 00:03:36
Time 00:04:00 | Step 3223447 / 6000000 | TPS 13396.8 | ETA 00:03:27
Time 00:04:10 | Step 3357569 / 6000000 | TPS 13412.1 | ETA 00:03:17
Time 00:04:20 | Step 3491865 / 6000000 | TPS 13429.5 | ETA 00:03:06
Time 00:04:30 | Step 3625978 / 6000000 | TPS 13411.3 | ETA 00:02:57
Time 00:04:40 | Step 3760114 / 6000000 | TPS 13413.5 | ETA 00:02:46
Time 00:04:50 | Step 3894149 / 6000000 | TPS 13403.5 | ETA 00:02:37
Time 00:05:00 | Step 4028151 / 6000000 | TPS 13400.1 | ETA 00:02:27
Time 00:05:10 | Step 4162111 / 6000000 | TPS 13395.9 | ETA 00:02:17
Time 00:05:20 | Step 4296278 / 6000000 | TPS 13416.7 | ETA 00:02:06
Time 00:05:30 | Step 4430305 / 6000000 | TPS 13402.6 | ETA 00:01:57
Time 00:05:40 | Step 4564350 / 6000000 | TPS 13404.5 | ETA 00:01:47
Time 00:05:50 | Step 4698429 / 6000000 | TPS 13407.8 | ETA 00:01:37
Time 00:06:00 | Step 4832448 / 6000000 | TPS 13401.9 | ETA 00:01:27
Time 00:06:10 | Step 4966506 / 6000000 | TPS 13405.8 | ETA 00:01:17
Time 00:06:20 | Step 5100689 / 6000000 | TPS 13418.2 | ETA 00:01:07
Time 00:06:30 | Step 5234821 / 6000000 | TPS 13413.2 | ETA 00:00:57
Time 00:06:40 | Step 5369002 / 6000000 | TPS 13418 | ETA 00:00:47
Time 00:06:50 | Step 5503245 / 6000000 | TPS 13424.3 | ETA 00:00:37
Time 00:07:00 | Step 5637345 / 6000000 | TPS 13409.9 | ETA 00:00:27
Time 00:07:10 | Step 5771569 / 6000000 | TPS 13422.4 | ETA 00:00:17
Time 00:07:20 | Step 5905761 / 6000000 | TPS 13419.1 | ETA 00:00:07
Time 00:07:27 | Step 6000000 / 6000000 | TPS 13405.6 | ETA 00:00:00
Average TPS: 13421.9
---------
-- Neighborlist stats:
20144 normal updates / 20000 forced updates / 0 dangerous updates
n_neigh_min: 0 / n_neigh_max: 0 / n_neigh_avg: 0
shortest rebuild period: 99
** run complete **
