HOOMD-blue 2.9.6 CUDA (10.2) DOUBLE HPMC_MIXED TBB SSE SSE2 SSE3 
Compiled: 03/17/2021
Copyright (c) 2009-2019 The Regents of the University of Michigan.
-----
You are using HOOMD-blue. Please cite the following:
* J A Anderson, J Glaser, and S C Glotzer. "HOOMD-blue: A Python package for
  high-performance molecular dynamics and hard particle Monte Carlo
  simulations", Computational Materials Science 173 (2020) 109363
-----
HOOMD-blue is running on the following GPU(s):
 [0]  Tesla P100-PCIE-12GB  56 SM_6.0 @ 1.33 GHz, 12198 MiB DRAM, MNG
run.py:007  |  system = read_gsd("/home/erjank_project/chrisjones/pekk-msibi-final/learning-runs/single-chains/workspace/38e28bcc5ef00d32fd078c86ad2807ba/components.gsd", frame=-1, time_step=0)
notice(2): Group "all" created containing 60 particles
run.py:009  |  nl = hoomd.md.nlist.tree()
-----
You are using tree neighbor lists. Please cite the following:
* M P Howard, J A Anderson, A Nikoubashman, S C Glotzer, and A Z
  Panagiotopoulos. "Efficient neighbor list calculation for molecular simulation
  of colloidal systems using graphics processing units", Computer Physics
  Communications 203 (2016) 45--52
* M P Howard, A Statt, F Madutsa, T M Truskett, and A Z Panagiotopoulos.
  "Quantized bounding volume hierarchies for neighbor search in molecular
  simulations on graphics processing units", Computational Materials Science 164
  (2019) 139--146
-----
run.py:010  |  nl.reset_exclusions(exclusions=['1-2', '1-3'])
notice(2): -- Neighborlist exclusion statistics -- :
notice(2): Particles with 2 exclusions             : 2
notice(2): Particles with 3 exclusions             : 2
notice(2): Particles with 4 exclusions             : 56
notice(2): Neighbors included by diameter          : no
notice(2): Neighbors excluded when in the same body: no
run.py:012  |  lj = hoomd.md.pair.lj(nlist=nl, r_cut=0)
run.py:013  |  lj.pair_coeff.set('E', 'E', epsilon=0, sigma=1, r_cut=0)
run.py:014  |  lj.pair_coeff.set('K', 'K', epsilon=0, sigma=1, r_cut=0)
run.py:015  |  lj.pair_coeff.set('E', 'K', epsilon=0, sigma=1, r_cut=0)
run.py:016  |  harmonic_bond = hoomd.md.bond.harmonic()
run.py:017  |  harmonic_bond.bond_coeff.set('E-K', k=850, r0=1.47)
run.py:018  |  harmonic_bond.bond_coeff.set('K-K', k=1450, r0=1.53)
run.py:019  |  atable = hoomd.md.angle.table(width=200)
run.py:020  |  atable.set_from_file('E-K-K', '/home/erjank_project/chrisjones/pekk-msibi-final/msibi-runs/angles-harmonic-bonds-6.5kT/potentials/angle_pot.E-K-K.txt')
run.py:021  |  atable.set_from_file('K-E-K', '/home/erjank_project/chrisjones/pekk-msibi-final/msibi-runs/angles-harmonic-bonds-6.5kT/potentials/angle_pot.K-E-K.txt')
run.py:023  |  _all = hoomd.group.all()
run.py:024  |  hoomd.md.integrate.mode_standard(0.0003)
run.py:026  |  integrator = hoomd.md.integrate.nvt(group=_all, **integrator_kwargs)
run.py:000  |  
import hoomd
import hoomd.md
from hoomd.init import read_gsd

hoomd.context.initialize("")
system = read_gsd("/home/erjank_project/chrisjones/pekk-msibi-final/learning-runs/single-chains/workspace/38e28bcc5ef00d32fd078c86ad2807ba/components.gsd", frame=-1, time_step=0)

nl = hoomd.md.nlist.tree()
nl.reset_exclusions(exclusions=['1-2', '1-3'])

lj = hoomd.md.pair.lj(nlist=nl, r_cut=0)
lj.pair_coeff.set('E', 'E', epsilon=0, sigma=1, r_cut=0)
lj.pair_coeff.set('K', 'K', epsilon=0, sigma=1, r_cut=0)
lj.pair_coeff.set('E', 'K', epsilon=0, sigma=1, r_cut=0)
harmonic_bond = hoomd.md.bond.harmonic()
harmonic_bond.bond_coeff.set('E-K', k=850, r0=1.47)
harmonic_bond.bond_coeff.set('K-K', k=1450, r0=1.53)
atable = hoomd.md.angle.table(width=200)
atable.set_from_file('E-K-K', '/home/erjank_project/chrisjones/pekk-msibi-final/msibi-runs/angles-harmonic-bonds-6.5kT/potentials/angle_pot.E-K-K.txt')
atable.set_from_file('K-E-K', '/home/erjank_project/chrisjones/pekk-msibi-final/msibi-runs/angles-harmonic-bonds-6.5kT/potentials/angle_pot.K-E-K.txt')

_all = hoomd.group.all()
hoomd.md.integrate.mode_standard(0.0003)
integrator_kwargs = {'tau': 0.01, 'kT': 6.5}
integrator = hoomd.md.integrate.nvt(group=_all, **integrator_kwargs)


hoomd.dump.gsd(
run.py:037  |  hoomd.run(6000000)
** starting run **
Time 00:00:10 | Step 129855 / 6000000 | TPS 12985.5 | ETA 00:07:32
Time 00:00:20 | Step 264571 / 6000000 | TPS 13471.6 | ETA 00:07:05
Time 00:00:30 | Step 399276 / 6000000 | TPS 13470.4 | ETA 00:06:55
Time 00:00:40 | Step 534064 / 6000000 | TPS 13478.8 | ETA 00:06:45
Time 00:00:50 | Step 668607 / 6000000 | TPS 13454.3 | ETA 00:06:36
Time 00:01:00 | Step 803092 / 6000000 | TPS 13448.5 | ETA 00:06:26
Time 00:01:10 | Step 937726 / 6000000 | TPS 13463.4 | ETA 00:06:16
Time 00:01:20 | Step 1072363 / 6000000 | TPS 13463.6 | ETA 00:06:05
Time 00:01:30 | Step 1207234 / 6000000 | TPS 13487.1 | ETA 00:05:55
Time 00:01:40 | Step 1341754 / 6000000 | TPS 13452 | ETA 00:05:46
Time 00:01:50 | Step 1476406 / 6000000 | TPS 13465.2 | ETA 00:05:35
Time 00:02:00 | Step 1611097 / 6000000 | TPS 13469.1 | ETA 00:05:25
Time 00:02:10 | Step 1745685 / 6000000 | TPS 13458.8 | ETA 00:05:16
Time 00:02:20 | Step 1880235 / 6000000 | TPS 13455 | ETA 00:05:06
Time 00:02:30 | Step 2014736 / 6000000 | TPS 13450.1 | ETA 00:04:56
Time 00:02:40 | Step 2149434 / 6000000 | TPS 13469.7 | ETA 00:04:45
Time 00:02:50 | Step 2284126 / 6000000 | TPS 13469.1 | ETA 00:04:35
Time 00:03:00 | Step 2418703 / 6000000 | TPS 13457.6 | ETA 00:04:26
Time 00:03:10 | Step 2553401 / 6000000 | TPS 13469.8 | ETA 00:04:15
Time 00:03:20 | Step 2688300 / 6000000 | TPS 13489.9 | ETA 00:04:05
Time 00:03:30 | Step 2823380 / 6000000 | TPS 13508 | ETA 00:03:55
Time 00:03:40 | Step 2958503 / 6000000 | TPS 13512.2 | ETA 00:03:45
Time 00:03:50 | Step 3093867 / 6000000 | TPS 13536.4 | ETA 00:03:34
Time 00:04:00 | Step 3229212 / 6000000 | TPS 13534.5 | ETA 00:03:24
Time 00:04:10 | Step 3364483 / 6000000 | TPS 13527.1 | ETA 00:03:14
Time 00:04:20 | Step 3499747 / 6000000 | TPS 13526.3 | ETA 00:03:04
Time 00:04:30 | Step 3635114 / 6000000 | TPS 13536.6 | ETA 00:02:54
Time 00:04:40 | Step 3770313 / 6000000 | TPS 13519.9 | ETA 00:02:44
Time 00:04:50 | Step 3905569 / 6000000 | TPS 13525.5 | ETA 00:02:34
Time 00:05:00 | Step 4040713 / 6000000 | TPS 13514.3 | ETA 00:02:24
Time 00:05:10 | Step 4175886 / 6000000 | TPS 13517.3 | ETA 00:02:14
Time 00:05:20 | Step 4311158 / 6000000 | TPS 13527.1 | ETA 00:02:04
Time 00:05:30 | Step 4446486 / 6000000 | TPS 13532.8 | ETA 00:01:54
Time 00:05:40 | Step 4581629 / 6000000 | TPS 13514.3 | ETA 00:01:44
Time 00:05:50 | Step 4716835 / 6000000 | TPS 13520.6 | ETA 00:01:34
Time 00:06:00 | Step 4852272 / 6000000 | TPS 13543.6 | ETA 00:01:24
Time 00:06:10 | Step 4987467 / 6000000 | TPS 13519.4 | ETA 00:01:14
Time 00:06:20 | Step 5122680 / 6000000 | TPS 13521.2 | ETA 00:01:04
Time 00:06:30 | Step 5257974 / 6000000 | TPS 13529.3 | ETA 00:00:54
Time 00:06:40 | Step 5393240 / 6000000 | TPS 13526.6 | ETA 00:00:44
Time 00:06:50 | Step 5528416 / 6000000 | TPS 13517.5 | ETA 00:00:34
Time 00:07:00 | Step 5663708 / 6000000 | TPS 13529.1 | ETA 00:00:24
Time 00:07:10 | Step 5799027 / 6000000 | TPS 13531.9 | ETA 00:00:14
Time 00:07:20 | Step 5934456 / 6000000 | TPS 13542.9 | ETA 00:00:04
Time 00:07:24 | Step 6000000 / 6000000 | TPS 13547.2 | ETA 00:00:00
Average TPS: 13488
---------
-- Neighborlist stats:
20099 normal updates / 20000 forced updates / 0 dangerous updates
n_neigh_min: 0 / n_neigh_max: 0 / n_neigh_avg: 0
shortest rebuild period: 99
** run complete **
