HOOMD-blue 2.9.6 CUDA (10.2) DOUBLE HPMC_MIXED TBB SSE SSE2 SSE3 
Compiled: 03/17/2021
Copyright (c) 2009-2019 The Regents of the University of Michigan.
-----
You are using HOOMD-blue. Please cite the following:
* J A Anderson, J Glaser, and S C Glotzer. "HOOMD-blue: A Python package for
  high-performance molecular dynamics and hard particle Monte Carlo
  simulations", Computational Materials Science 173 (2020) 109363
-----
HOOMD-blue is running on the following GPU(s):
 [0]  Tesla P100-PCIE-12GB  56 SM_6.0 @ 1.33 GHz, 12198 MiB DRAM, MNG
run.py:007  |  system = read_gsd("/home/erjank_project/chrisjones/pekk-msibi-final/learning-runs/single-chains/workspace/38e28bcc5ef00d32fd078c86ad2807ba/components.gsd", frame=-1, time_step=0)
notice(2): Group "all" created containing 60 particles
run.py:009  |  nl = hoomd.md.nlist.tree()
-----
You are using tree neighbor lists. Please cite the following:
* M P Howard, J A Anderson, A Nikoubashman, S C Glotzer, and A Z
  Panagiotopoulos. "Efficient neighbor list calculation for molecular simulation
  of colloidal systems using graphics processing units", Computer Physics
  Communications 203 (2016) 45--52
* M P Howard, A Statt, F Madutsa, T M Truskett, and A Z Panagiotopoulos.
  "Quantized bounding volume hierarchies for neighbor search in molecular
  simulations on graphics processing units", Computational Materials Science 164
  (2019) 139--146
-----
run.py:010  |  nl.reset_exclusions(exclusions=['1-2', '1-3'])
notice(2): -- Neighborlist exclusion statistics -- :
notice(2): Particles with 2 exclusions             : 2
notice(2): Particles with 3 exclusions             : 2
notice(2): Particles with 4 exclusions             : 56
notice(2): Neighbors included by diameter          : no
notice(2): Neighbors excluded when in the same body: no
run.py:012  |  lj = hoomd.md.pair.lj(nlist=nl, r_cut=0)
run.py:013  |  lj.pair_coeff.set('E', 'E', epsilon=0, sigma=1, r_cut=0)
run.py:014  |  lj.pair_coeff.set('K', 'K', epsilon=0, sigma=1, r_cut=0)
run.py:015  |  lj.pair_coeff.set('E', 'K', epsilon=0, sigma=1, r_cut=0)
run.py:016  |  harmonic_bond = hoomd.md.bond.harmonic()
run.py:017  |  harmonic_bond.bond_coeff.set('E-K', k=850, r0=1.47)
run.py:018  |  harmonic_bond.bond_coeff.set('K-K', k=1450, r0=1.53)
run.py:019  |  atable = hoomd.md.angle.table(width=200)
run.py:020  |  atable.set_from_file('E-K-K', '/home/erjank_project/chrisjones/pekk-msibi-final/msibi-runs/angles-harmonic-bonds-6.5kT/potentials/angle_pot.E-K-K.txt')
run.py:021  |  atable.set_from_file('K-E-K', '/home/erjank_project/chrisjones/pekk-msibi-final/msibi-runs/angles-harmonic-bonds-6.5kT/potentials/angle_pot.K-E-K.txt')
run.py:023  |  _all = hoomd.group.all()
run.py:024  |  hoomd.md.integrate.mode_standard(0.0003)
run.py:026  |  integrator = hoomd.md.integrate.nvt(group=_all, **integrator_kwargs)
run.py:000  |  
import hoomd
import hoomd.md
from hoomd.init import read_gsd

hoomd.context.initialize("")
system = read_gsd("/home/erjank_project/chrisjones/pekk-msibi-final/learning-runs/single-chains/workspace/38e28bcc5ef00d32fd078c86ad2807ba/components.gsd", frame=-1, time_step=0)

nl = hoomd.md.nlist.tree()
nl.reset_exclusions(exclusions=['1-2', '1-3'])

lj = hoomd.md.pair.lj(nlist=nl, r_cut=0)
lj.pair_coeff.set('E', 'E', epsilon=0, sigma=1, r_cut=0)
lj.pair_coeff.set('K', 'K', epsilon=0, sigma=1, r_cut=0)
lj.pair_coeff.set('E', 'K', epsilon=0, sigma=1, r_cut=0)
harmonic_bond = hoomd.md.bond.harmonic()
harmonic_bond.bond_coeff.set('E-K', k=850, r0=1.47)
harmonic_bond.bond_coeff.set('K-K', k=1450, r0=1.53)
atable = hoomd.md.angle.table(width=200)
atable.set_from_file('E-K-K', '/home/erjank_project/chrisjones/pekk-msibi-final/msibi-runs/angles-harmonic-bonds-6.5kT/potentials/angle_pot.E-K-K.txt')
atable.set_from_file('K-E-K', '/home/erjank_project/chrisjones/pekk-msibi-final/msibi-runs/angles-harmonic-bonds-6.5kT/potentials/angle_pot.K-E-K.txt')

_all = hoomd.group.all()
hoomd.md.integrate.mode_standard(0.0003)
integrator_kwargs = {'tau': 0.01, 'kT': 6.5}
integrator = hoomd.md.integrate.nvt(group=_all, **integrator_kwargs)


hoomd.dump.gsd(
run.py:037  |  hoomd.run(6000000)
** starting run **
Time 00:00:10 | Step 127904 / 6000000 | TPS 12790.3 | ETA 00:07:39
Time 00:00:20 | Step 260815 / 6000000 | TPS 13291 | ETA 00:07:11
Time 00:00:30 | Step 393684 / 6000000 | TPS 13286.9 | ETA 00:07:01
Time 00:00:40 | Step 526580 / 6000000 | TPS 13289.6 | ETA 00:06:51
Time 00:00:50 | Step 659367 / 6000000 | TPS 13278.7 | ETA 00:06:42
Time 00:01:00 | Step 792222 / 6000000 | TPS 13285.5 | ETA 00:06:31
Time 00:01:10 | Step 925125 / 6000000 | TPS 13290.3 | ETA 00:06:21
Time 00:01:20 | Step 1057890 / 6000000 | TPS 13276.4 | ETA 00:06:12
Time 00:01:30 | Step 1190794 / 6000000 | TPS 13290.4 | ETA 00:06:01
Time 00:01:40 | Step 1323592 / 6000000 | TPS 13279.8 | ETA 00:05:52
Time 00:01:50 | Step 1456611 / 6000000 | TPS 13301.8 | ETA 00:05:41
Time 00:02:00 | Step 1589448 / 6000000 | TPS 13283.7 | ETA 00:05:32
Time 00:02:10 | Step 1722394 / 6000000 | TPS 13294.5 | ETA 00:05:21
Time 00:02:20 | Step 1855310 / 6000000 | TPS 13291.6 | ETA 00:05:11
Time 00:02:30 | Step 1988285 / 6000000 | TPS 13297.4 | ETA 00:05:01
Time 00:02:40 | Step 2121225 / 6000000 | TPS 13293.9 | ETA 00:04:51
Time 00:02:50 | Step 2254245 / 6000000 | TPS 13302 | ETA 00:04:41
Time 00:03:00 | Step 2387212 / 6000000 | TPS 13296.6 | ETA 00:04:31
Time 00:03:10 | Step 2519895 / 6000000 | TPS 13268.2 | ETA 00:04:22
Time 00:03:20 | Step 2652906 / 6000000 | TPS 13301.1 | ETA 00:04:11
Time 00:03:30 | Step 2785955 / 6000000 | TPS 13304.8 | ETA 00:04:01
Time 00:03:40 | Step 2918691 / 6000000 | TPS 13273.5 | ETA 00:03:52
Time 00:03:50 | Step 3051547 / 6000000 | TPS 13285.5 | ETA 00:03:41
Time 00:04:00 | Step 3184542 / 6000000 | TPS 13299.4 | ETA 00:03:31
Time 00:04:10 | Step 3317478 / 6000000 | TPS 13293.6 | ETA 00:03:21
Time 00:04:20 | Step 3450521 / 6000000 | TPS 13304.2 | ETA 00:03:11
Time 00:04:30 | Step 3583583 / 6000000 | TPS 13306.2 | ETA 00:03:01
Time 00:04:40 | Step 3716558 / 6000000 | TPS 13297.4 | ETA 00:02:51
Time 00:04:50 | Step 3849698 / 6000000 | TPS 13314 | ETA 00:02:41
Time 00:05:00 | Step 3982787 / 6000000 | TPS 13308.9 | ETA 00:02:31
Time 00:05:10 | Step 4115808 / 6000000 | TPS 13302.1 | ETA 00:02:21
Time 00:05:20 | Step 4249029 / 6000000 | TPS 13322.1 | ETA 00:02:11
Time 00:05:30 | Step 4382175 / 6000000 | TPS 13314.6 | ETA 00:02:01
Time 00:05:40 | Step 4515221 / 6000000 | TPS 13304.6 | ETA 00:01:51
Time 00:05:50 | Step 4648319 / 6000000 | TPS 13309.8 | ETA 00:01:41
Time 00:06:00 | Step 4781380 / 6000000 | TPS 13306.1 | ETA 00:01:31
Time 00:06:10 | Step 4914022 / 6000000 | TPS 13264.2 | ETA 00:01:21
Time 00:06:20 | Step 5046901 / 6000000 | TPS 13287.4 | ETA 00:01:11
Time 00:06:30 | Step 5179821 / 6000000 | TPS 13291.9 | ETA 00:01:01
Time 00:06:40 | Step 5312672 / 6000000 | TPS 13285.1 | ETA 00:00:51
Time 00:06:50 | Step 5445760 / 6000000 | TPS 13308.7 | ETA 00:00:41
Time 00:07:00 | Step 5578783 / 6000000 | TPS 13302.3 | ETA 00:00:31
Time 00:07:10 | Step 5711743 / 6000000 | TPS 13295.9 | ETA 00:00:21
Time 00:07:20 | Step 5844641 / 6000000 | TPS 13289.7 | ETA 00:00:11
Time 00:07:30 | Step 5977612 / 6000000 | TPS 13297.1 | ETA 00:00:01
Time 00:07:31 | Step 6000000 / 6000000 | TPS 13284.4 | ETA 00:00:00
Average TPS: 13283.5
---------
-- Neighborlist stats:
20076 normal updates / 20000 forced updates / 0 dangerous updates
n_neigh_min: 0 / n_neigh_max: 0 / n_neigh_avg: 0
shortest rebuild period: 99
** run complete **
