HOOMD-blue 2.9.6 CUDA (10.2) DOUBLE HPMC_MIXED TBB SSE SSE2 SSE3 
Compiled: 03/17/2021
Copyright (c) 2009-2019 The Regents of the University of Michigan.
-----
You are using HOOMD-blue. Please cite the following:
* J A Anderson, J Glaser, and S C Glotzer. "HOOMD-blue: A Python package for
  high-performance molecular dynamics and hard particle Monte Carlo
  simulations", Computational Materials Science 173 (2020) 109363
-----
HOOMD-blue is running on the following GPU(s):
 [0]  Tesla P100-PCIE-12GB  56 SM_6.0 @ 1.33 GHz, 12198 MiB DRAM, MNG
run.py:007  |  system = read_gsd("/home/erjank_project/chrisjones/pekk-msibi-final/learning-runs/single-chains/workspace/38e28bcc5ef00d32fd078c86ad2807ba/components.gsd", frame=-1, time_step=0)
notice(2): Group "all" created containing 60 particles
run.py:009  |  nl = hoomd.md.nlist.tree()
-----
You are using tree neighbor lists. Please cite the following:
* M P Howard, J A Anderson, A Nikoubashman, S C Glotzer, and A Z
  Panagiotopoulos. "Efficient neighbor list calculation for molecular simulation
  of colloidal systems using graphics processing units", Computer Physics
  Communications 203 (2016) 45--52
* M P Howard, A Statt, F Madutsa, T M Truskett, and A Z Panagiotopoulos.
  "Quantized bounding volume hierarchies for neighbor search in molecular
  simulations on graphics processing units", Computational Materials Science 164
  (2019) 139--146
-----
run.py:010  |  nl.reset_exclusions(exclusions=['1-2', '1-3'])
notice(2): -- Neighborlist exclusion statistics -- :
notice(2): Particles with 2 exclusions             : 2
notice(2): Particles with 3 exclusions             : 2
notice(2): Particles with 4 exclusions             : 56
notice(2): Neighbors included by diameter          : no
notice(2): Neighbors excluded when in the same body: no
run.py:012  |  lj = hoomd.md.pair.lj(nlist=nl, r_cut=0)
run.py:013  |  lj.pair_coeff.set('E', 'E', epsilon=0, sigma=1, r_cut=0)
run.py:014  |  lj.pair_coeff.set('K', 'K', epsilon=0, sigma=1, r_cut=0)
run.py:015  |  lj.pair_coeff.set('E', 'K', epsilon=0, sigma=1, r_cut=0)
run.py:016  |  harmonic_bond = hoomd.md.bond.harmonic()
run.py:017  |  harmonic_bond.bond_coeff.set('E-K', k=850, r0=1.47)
run.py:018  |  harmonic_bond.bond_coeff.set('K-K', k=1450, r0=1.53)
run.py:019  |  atable = hoomd.md.angle.table(width=200)
run.py:020  |  atable.set_from_file('E-K-K', '/home/erjank_project/chrisjones/pekk-msibi-final/msibi-runs/angles-harmonic-bonds-6.5kT/potentials/angle_pot.E-K-K.txt')
run.py:021  |  atable.set_from_file('K-E-K', '/home/erjank_project/chrisjones/pekk-msibi-final/msibi-runs/angles-harmonic-bonds-6.5kT/potentials/angle_pot.K-E-K.txt')
run.py:023  |  _all = hoomd.group.all()
run.py:024  |  hoomd.md.integrate.mode_standard(0.0003)
run.py:026  |  integrator = hoomd.md.integrate.nvt(group=_all, **integrator_kwargs)
run.py:000  |  
import hoomd
import hoomd.md
from hoomd.init import read_gsd

hoomd.context.initialize("")
system = read_gsd("/home/erjank_project/chrisjones/pekk-msibi-final/learning-runs/single-chains/workspace/38e28bcc5ef00d32fd078c86ad2807ba/components.gsd", frame=-1, time_step=0)

nl = hoomd.md.nlist.tree()
nl.reset_exclusions(exclusions=['1-2', '1-3'])

lj = hoomd.md.pair.lj(nlist=nl, r_cut=0)
lj.pair_coeff.set('E', 'E', epsilon=0, sigma=1, r_cut=0)
lj.pair_coeff.set('K', 'K', epsilon=0, sigma=1, r_cut=0)
lj.pair_coeff.set('E', 'K', epsilon=0, sigma=1, r_cut=0)
harmonic_bond = hoomd.md.bond.harmonic()
harmonic_bond.bond_coeff.set('E-K', k=850, r0=1.47)
harmonic_bond.bond_coeff.set('K-K', k=1450, r0=1.53)
atable = hoomd.md.angle.table(width=200)
atable.set_from_file('E-K-K', '/home/erjank_project/chrisjones/pekk-msibi-final/msibi-runs/angles-harmonic-bonds-6.5kT/potentials/angle_pot.E-K-K.txt')
atable.set_from_file('K-E-K', '/home/erjank_project/chrisjones/pekk-msibi-final/msibi-runs/angles-harmonic-bonds-6.5kT/potentials/angle_pot.K-E-K.txt')

_all = hoomd.group.all()
hoomd.md.integrate.mode_standard(0.0003)
integrator_kwargs = {'tau': 0.01, 'kT': 6.5}
integrator = hoomd.md.integrate.nvt(group=_all, **integrator_kwargs)


hoomd.dump.gsd(
run.py:037  |  hoomd.run(6000000)
** starting run **
Time 00:00:10 | Step 130548 / 6000000 | TPS 13054.7 | ETA 00:07:29
Time 00:00:20 | Step 266204 / 6000000 | TPS 13565.5 | ETA 00:07:02
Time 00:00:30 | Step 401729 / 6000000 | TPS 13552.4 | ETA 00:06:53
Time 00:00:40 | Step 537352 / 6000000 | TPS 13562.3 | ETA 00:06:42
Time 00:00:50 | Step 672997 / 6000000 | TPS 13564.5 | ETA 00:06:32
Time 00:01:00 | Step 808548 / 6000000 | TPS 13555.1 | ETA 00:06:22
Time 00:01:10 | Step 944140 / 6000000 | TPS 13559.1 | ETA 00:06:12
Time 00:01:20 | Step 1079748 / 6000000 | TPS 13560.8 | ETA 00:06:02
Time 00:01:30 | Step 1215340 / 6000000 | TPS 13559.1 | ETA 00:05:52
Time 00:01:40 | Step 1351049 / 6000000 | TPS 13570.8 | ETA 00:05:42
Time 00:01:50 | Step 1486537 / 6000000 | TPS 13548.7 | ETA 00:05:33
Time 00:02:00 | Step 1621993 / 6000000 | TPS 13545.5 | ETA 00:05:23
Time 00:02:10 | Step 1757587 / 6000000 | TPS 13559.4 | ETA 00:05:12
Time 00:02:20 | Step 1893165 / 6000000 | TPS 13557.7 | ETA 00:05:02
Time 00:02:30 | Step 2028633 / 6000000 | TPS 13546.8 | ETA 00:04:53
Time 00:02:40 | Step 2164225 / 6000000 | TPS 13559.1 | ETA 00:04:42
Time 00:02:50 | Step 2299803 / 6000000 | TPS 13557.7 | ETA 00:04:32
Time 00:03:00 | Step 2435385 / 6000000 | TPS 13558.1 | ETA 00:04:22
Time 00:03:10 | Step 2570905 / 6000000 | TPS 13551.9 | ETA 00:04:13
Time 00:03:20 | Step 2706534 / 6000000 | TPS 13562.8 | ETA 00:04:02
Time 00:03:30 | Step 2842232 / 6000000 | TPS 13569.8 | ETA 00:03:52
Time 00:03:40 | Step 2977879 / 6000000 | TPS 13564.6 | ETA 00:03:42
Time 00:03:50 | Step 3113494 / 6000000 | TPS 13561.5 | ETA 00:03:32
Time 00:04:00 | Step 3248966 / 6000000 | TPS 13547.1 | ETA 00:03:23
Time 00:04:10 | Step 3384589 / 6000000 | TPS 13562.2 | ETA 00:03:12
Time 00:04:20 | Step 3520224 / 6000000 | TPS 13563.4 | ETA 00:03:02
Time 00:04:30 | Step 3655905 / 6000000 | TPS 13568 | ETA 00:02:52
Time 00:04:40 | Step 3791528 / 6000000 | TPS 13562.2 | ETA 00:02:42
Time 00:04:50 | Step 3927141 / 6000000 | TPS 13561.2 | ETA 00:02:32
Time 00:05:00 | Step 4062922 / 6000000 | TPS 13578.1 | ETA 00:02:22
Time 00:05:10 | Step 4198647 / 6000000 | TPS 13572.4 | ETA 00:02:12
Time 00:05:20 | Step 4334349 / 6000000 | TPS 13570.1 | ETA 00:02:02
Time 00:05:30 | Step 4470013 / 6000000 | TPS 13566.3 | ETA 00:01:52
Time 00:05:40 | Step 4605627 / 6000000 | TPS 13561.3 | ETA 00:01:42
Time 00:05:50 | Step 4741276 / 6000000 | TPS 13564.9 | ETA 00:01:32
Time 00:06:00 | Step 4877195 / 6000000 | TPS 13591.9 | ETA 00:01:22
Time 00:06:10 | Step 5012863 / 6000000 | TPS 13566.7 | ETA 00:01:12
Time 00:06:20 | Step 5148564 / 6000000 | TPS 13570.1 | ETA 00:01:02
Time 00:06:30 | Step 5284265 / 6000000 | TPS 13570.1 | ETA 00:00:52
Time 00:06:40 | Step 5419964 / 6000000 | TPS 13569.8 | ETA 00:00:42
Time 00:06:50 | Step 5555623 / 6000000 | TPS 13565.8 | ETA 00:00:32
Time 00:07:00 | Step 5691224 / 6000000 | TPS 13560 | ETA 00:00:22
Time 00:07:10 | Step 5826807 / 6000000 | TPS 13558.2 | ETA 00:00:12
Time 00:07:20 | Step 5962437 / 6000000 | TPS 13563 | ETA 00:00:02
Time 00:07:22 | Step 6000000 / 6000000 | TPS 13557.1 | ETA 00:00:00
Average TPS: 13551
---------
-- Neighborlist stats:
20103 normal updates / 20000 forced updates / 0 dangerous updates
n_neigh_min: 0 / n_neigh_max: 0 / n_neigh_avg: 0
shortest rebuild period: 99
** run complete **
