HOOMD-blue 2.9.6 CUDA (10.2) DOUBLE HPMC_MIXED TBB SSE SSE2 SSE3 
Compiled: 03/17/2021
Copyright (c) 2009-2019 The Regents of the University of Michigan.
-----
You are using HOOMD-blue. Please cite the following:
* J A Anderson, J Glaser, and S C Glotzer. "HOOMD-blue: A Python package for
  high-performance molecular dynamics and hard particle Monte Carlo
  simulations", Computational Materials Science 173 (2020) 109363
-----
HOOMD-blue is running on the following GPU(s):
 [0]  Tesla P100-PCIE-12GB  56 SM_6.0 @ 1.33 GHz, 12198 MiB DRAM, MNG
run.py:007  |  system = read_gsd("/home/erjank_project/chrisjones/pekk-msibi-final/learning-runs/single-chains/workspace/38e28bcc5ef00d32fd078c86ad2807ba/components.gsd", frame=-1, time_step=0)
notice(2): Group "all" created containing 60 particles
run.py:009  |  nl = hoomd.md.nlist.tree()
-----
You are using tree neighbor lists. Please cite the following:
* M P Howard, J A Anderson, A Nikoubashman, S C Glotzer, and A Z
  Panagiotopoulos. "Efficient neighbor list calculation for molecular simulation
  of colloidal systems using graphics processing units", Computer Physics
  Communications 203 (2016) 45--52
* M P Howard, A Statt, F Madutsa, T M Truskett, and A Z Panagiotopoulos.
  "Quantized bounding volume hierarchies for neighbor search in molecular
  simulations on graphics processing units", Computational Materials Science 164
  (2019) 139--146
-----
run.py:010  |  nl.reset_exclusions(exclusions=['1-2', '1-3'])
notice(2): -- Neighborlist exclusion statistics -- :
notice(2): Particles with 2 exclusions             : 2
notice(2): Particles with 3 exclusions             : 2
notice(2): Particles with 4 exclusions             : 56
notice(2): Neighbors included by diameter          : no
notice(2): Neighbors excluded when in the same body: no
run.py:012  |  lj = hoomd.md.pair.lj(nlist=nl, r_cut=0)
run.py:013  |  lj.pair_coeff.set('E', 'E', epsilon=0, sigma=1, r_cut=0)
run.py:014  |  lj.pair_coeff.set('K', 'K', epsilon=0, sigma=1, r_cut=0)
run.py:015  |  lj.pair_coeff.set('E', 'K', epsilon=0, sigma=1, r_cut=0)
run.py:016  |  harmonic_bond = hoomd.md.bond.harmonic()
run.py:017  |  harmonic_bond.bond_coeff.set('E-K', k=850, r0=1.47)
run.py:018  |  harmonic_bond.bond_coeff.set('K-K', k=1450, r0=1.53)
run.py:019  |  atable = hoomd.md.angle.table(width=200)
run.py:020  |  atable.set_from_file('E-K-K', '/home/erjank_project/chrisjones/pekk-msibi-final/msibi-runs/angles-harmonic-bonds-6.5kT/potentials/angle_pot.E-K-K.txt')
run.py:021  |  atable.set_from_file('K-E-K', '/home/erjank_project/chrisjones/pekk-msibi-final/msibi-runs/angles-harmonic-bonds-6.5kT/potentials/angle_pot.K-E-K.txt')
run.py:023  |  _all = hoomd.group.all()
run.py:024  |  hoomd.md.integrate.mode_standard(0.0003)
run.py:026  |  integrator = hoomd.md.integrate.nvt(group=_all, **integrator_kwargs)
run.py:000  |  
import hoomd
import hoomd.md
from hoomd.init import read_gsd

hoomd.context.initialize("")
system = read_gsd("/home/erjank_project/chrisjones/pekk-msibi-final/learning-runs/single-chains/workspace/38e28bcc5ef00d32fd078c86ad2807ba/components.gsd", frame=-1, time_step=0)

nl = hoomd.md.nlist.tree()
nl.reset_exclusions(exclusions=['1-2', '1-3'])

lj = hoomd.md.pair.lj(nlist=nl, r_cut=0)
lj.pair_coeff.set('E', 'E', epsilon=0, sigma=1, r_cut=0)
lj.pair_coeff.set('K', 'K', epsilon=0, sigma=1, r_cut=0)
lj.pair_coeff.set('E', 'K', epsilon=0, sigma=1, r_cut=0)
harmonic_bond = hoomd.md.bond.harmonic()
harmonic_bond.bond_coeff.set('E-K', k=850, r0=1.47)
harmonic_bond.bond_coeff.set('K-K', k=1450, r0=1.53)
atable = hoomd.md.angle.table(width=200)
atable.set_from_file('E-K-K', '/home/erjank_project/chrisjones/pekk-msibi-final/msibi-runs/angles-harmonic-bonds-6.5kT/potentials/angle_pot.E-K-K.txt')
atable.set_from_file('K-E-K', '/home/erjank_project/chrisjones/pekk-msibi-final/msibi-runs/angles-harmonic-bonds-6.5kT/potentials/angle_pot.K-E-K.txt')

_all = hoomd.group.all()
hoomd.md.integrate.mode_standard(0.0003)
integrator_kwargs = {'tau': 0.01, 'kT': 6.5}
integrator = hoomd.md.integrate.nvt(group=_all, **integrator_kwargs)


hoomd.dump.gsd(
run.py:037  |  hoomd.run(6000000)
** starting run **
Time 00:00:10 | Step 130267 / 6000000 | TPS 13026.6 | ETA 00:07:30
Time 00:00:20 | Step 265492 / 6000000 | TPS 13522.4 | ETA 00:07:04
Time 00:00:30 | Step 400656 / 6000000 | TPS 13516.3 | ETA 00:06:54
Time 00:00:40 | Step 535817 / 6000000 | TPS 13516.1 | ETA 00:06:44
Time 00:00:50 | Step 671064 / 6000000 | TPS 13524.6 | ETA 00:06:34
Time 00:01:00 | Step 806306 / 6000000 | TPS 13524.2 | ETA 00:06:24
Time 00:01:10 | Step 941616 / 6000000 | TPS 13530.9 | ETA 00:06:13
Time 00:01:20 | Step 1077008 / 6000000 | TPS 13539.2 | ETA 00:06:03
Time 00:01:30 | Step 1212220 / 6000000 | TPS 13521.2 | ETA 00:05:54
Time 00:01:40 | Step 1347406 / 6000000 | TPS 13518.6 | ETA 00:05:44
Time 00:01:50 | Step 1482607 / 6000000 | TPS 13520.1 | ETA 00:05:34
Time 00:02:00 | Step 1617756 / 6000000 | TPS 13514.9 | ETA 00:05:24
Time 00:02:10 | Step 1753074 / 6000000 | TPS 13531.7 | ETA 00:05:13
Time 00:02:20 | Step 1888468 / 6000000 | TPS 13539.4 | ETA 00:05:03
Time 00:02:30 | Step 2023879 / 6000000 | TPS 13541.1 | ETA 00:04:53
Time 00:02:40 | Step 2159278 / 6000000 | TPS 13539.5 | ETA 00:04:43
Time 00:02:50 | Step 2294618 / 6000000 | TPS 13533.9 | ETA 00:04:33
Time 00:03:00 | Step 2429909 / 6000000 | TPS 13529 | ETA 00:04:23
Time 00:03:10 | Step 2565131 / 6000000 | TPS 13522.2 | ETA 00:04:14
Time 00:03:20 | Step 2700441 / 6000000 | TPS 13531 | ETA 00:04:03
Time 00:03:30 | Step 2835842 / 6000000 | TPS 13540 | ETA 00:03:53
Time 00:03:40 | Step 2971130 / 6000000 | TPS 13528.7 | ETA 00:03:43
Time 00:03:50 | Step 3106419 / 6000000 | TPS 13528.9 | ETA 00:03:33
Time 00:04:00 | Step 3241499 / 6000000 | TPS 13508 | ETA 00:03:24
Time 00:04:10 | Step 3376671 / 6000000 | TPS 13517.2 | ETA 00:03:14
Time 00:04:20 | Step 3511848 / 6000000 | TPS 13517.7 | ETA 00:03:04
Time 00:04:30 | Step 3647181 / 6000000 | TPS 13533.3 | ETA 00:02:53
Time 00:04:40 | Step 3782427 / 6000000 | TPS 13524.6 | ETA 00:02:43
Time 00:04:50 | Step 3917648 / 6000000 | TPS 13522 | ETA 00:02:33
Time 00:05:00 | Step 4053231 / 6000000 | TPS 13558.2 | ETA 00:02:23
Time 00:05:10 | Step 4188871 / 6000000 | TPS 13564 | ETA 00:02:13
Time 00:05:20 | Step 4324479 / 6000000 | TPS 13560.7 | ETA 00:02:03
Time 00:05:30 | Step 4460169 / 6000000 | TPS 13568.9 | ETA 00:01:53
Time 00:05:40 | Step 4595825 / 6000000 | TPS 13565.5 | ETA 00:01:43
Time 00:05:50 | Step 4731478 / 6000000 | TPS 13565.3 | ETA 00:01:33
Time 00:06:00 | Step 4867205 / 6000000 | TPS 13572.7 | ETA 00:01:23
Time 00:06:10 | Step 5002827 / 6000000 | TPS 13562.1 | ETA 00:01:13
Time 00:06:20 | Step 5138456 / 6000000 | TPS 13562.9 | ETA 00:01:03
Time 00:06:30 | Step 5274111 / 6000000 | TPS 13565.4 | ETA 00:00:53
Time 00:06:40 | Step 5409709 / 6000000 | TPS 13559.8 | ETA 00:00:43
Time 00:06:50 | Step 5545380 / 6000000 | TPS 13567.1 | ETA 00:00:33
Time 00:07:00 | Step 5681054 / 6000000 | TPS 13567.4 | ETA 00:00:23
Time 00:07:10 | Step 5816771 / 6000000 | TPS 13571.7 | ETA 00:00:13
Time 00:07:20 | Step 5952494 / 6000000 | TPS 13572.2 | ETA 00:00:03
Time 00:07:23 | Step 6000000 / 6000000 | TPS 13582.9 | ETA 00:00:00
Average TPS: 13528.8
---------
-- Neighborlist stats:
20121 normal updates / 20000 forced updates / 0 dangerous updates
n_neigh_min: 0 / n_neigh_max: 0 / n_neigh_avg: 0
shortest rebuild period: 99
** run complete **
