HOOMD-blue 2.9.6 CUDA (10.2) DOUBLE HPMC_MIXED TBB SSE SSE2 SSE3 
Compiled: 03/17/2021
Copyright (c) 2009-2019 The Regents of the University of Michigan.
-----
You are using HOOMD-blue. Please cite the following:
* J A Anderson, J Glaser, and S C Glotzer. "HOOMD-blue: A Python package for
  high-performance molecular dynamics and hard particle Monte Carlo
  simulations", Computational Materials Science 173 (2020) 109363
-----
HOOMD-blue is running on the following GPU(s):
 [0]  Tesla P100-PCIE-12GB  56 SM_6.0 @ 1.33 GHz, 12198 MiB DRAM, MNG
run.py:007  |  system = read_gsd("/home/erjank_project/chrisjones/pekk-msibi-final/learning-runs/single-chains/workspace/38e28bcc5ef00d32fd078c86ad2807ba/components.gsd", frame=-1, time_step=0)
notice(2): Group "all" created containing 60 particles
run.py:009  |  nl = hoomd.md.nlist.tree()
-----
You are using tree neighbor lists. Please cite the following:
* M P Howard, J A Anderson, A Nikoubashman, S C Glotzer, and A Z
  Panagiotopoulos. "Efficient neighbor list calculation for molecular simulation
  of colloidal systems using graphics processing units", Computer Physics
  Communications 203 (2016) 45--52
* M P Howard, A Statt, F Madutsa, T M Truskett, and A Z Panagiotopoulos.
  "Quantized bounding volume hierarchies for neighbor search in molecular
  simulations on graphics processing units", Computational Materials Science 164
  (2019) 139--146
-----
run.py:010  |  nl.reset_exclusions(exclusions=['1-2', '1-3'])
notice(2): -- Neighborlist exclusion statistics -- :
notice(2): Particles with 2 exclusions             : 2
notice(2): Particles with 3 exclusions             : 2
notice(2): Particles with 4 exclusions             : 56
notice(2): Neighbors included by diameter          : no
notice(2): Neighbors excluded when in the same body: no
run.py:012  |  lj = hoomd.md.pair.lj(nlist=nl, r_cut=0)
run.py:013  |  lj.pair_coeff.set('E', 'E', epsilon=0, sigma=1, r_cut=0)
run.py:014  |  lj.pair_coeff.set('K', 'K', epsilon=0, sigma=1, r_cut=0)
run.py:015  |  lj.pair_coeff.set('E', 'K', epsilon=0, sigma=1, r_cut=0)
run.py:016  |  harmonic_bond = hoomd.md.bond.harmonic()
run.py:017  |  harmonic_bond.bond_coeff.set('E-K', k=850, r0=1.47)
run.py:018  |  harmonic_bond.bond_coeff.set('K-K', k=1450, r0=1.53)
run.py:019  |  atable = hoomd.md.angle.table(width=200)
run.py:020  |  atable.set_from_file('E-K-K', '/home/erjank_project/chrisjones/pekk-msibi-final/msibi-runs/angles-harmonic-bonds-6.5kT/potentials/angle_pot.E-K-K.txt')
run.py:021  |  atable.set_from_file('K-E-K', '/home/erjank_project/chrisjones/pekk-msibi-final/msibi-runs/angles-harmonic-bonds-6.5kT/potentials/angle_pot.K-E-K.txt')
run.py:023  |  _all = hoomd.group.all()
run.py:024  |  hoomd.md.integrate.mode_standard(0.0003)
run.py:026  |  integrator = hoomd.md.integrate.nvt(group=_all, **integrator_kwargs)
run.py:000  |  
import hoomd
import hoomd.md
from hoomd.init import read_gsd

hoomd.context.initialize("")
system = read_gsd("/home/erjank_project/chrisjones/pekk-msibi-final/learning-runs/single-chains/workspace/38e28bcc5ef00d32fd078c86ad2807ba/components.gsd", frame=-1, time_step=0)

nl = hoomd.md.nlist.tree()
nl.reset_exclusions(exclusions=['1-2', '1-3'])

lj = hoomd.md.pair.lj(nlist=nl, r_cut=0)
lj.pair_coeff.set('E', 'E', epsilon=0, sigma=1, r_cut=0)
lj.pair_coeff.set('K', 'K', epsilon=0, sigma=1, r_cut=0)
lj.pair_coeff.set('E', 'K', epsilon=0, sigma=1, r_cut=0)
harmonic_bond = hoomd.md.bond.harmonic()
harmonic_bond.bond_coeff.set('E-K', k=850, r0=1.47)
harmonic_bond.bond_coeff.set('K-K', k=1450, r0=1.53)
atable = hoomd.md.angle.table(width=200)
atable.set_from_file('E-K-K', '/home/erjank_project/chrisjones/pekk-msibi-final/msibi-runs/angles-harmonic-bonds-6.5kT/potentials/angle_pot.E-K-K.txt')
atable.set_from_file('K-E-K', '/home/erjank_project/chrisjones/pekk-msibi-final/msibi-runs/angles-harmonic-bonds-6.5kT/potentials/angle_pot.K-E-K.txt')

_all = hoomd.group.all()
hoomd.md.integrate.mode_standard(0.0003)
integrator_kwargs = {'tau': 0.01, 'kT': 6.5}
integrator = hoomd.md.integrate.nvt(group=_all, **integrator_kwargs)


hoomd.dump.gsd(
run.py:037  |  hoomd.run(6000000)
** starting run **
Time 00:00:10 | Step 128753 / 6000000 | TPS 12875.3 | ETA 00:07:36
Time 00:00:20 | Step 262597 / 6000000 | TPS 13384.3 | ETA 00:07:08
Time 00:00:30 | Step 396479 / 6000000 | TPS 13388.2 | ETA 00:06:58
Time 00:00:40 | Step 530454 / 6000000 | TPS 13397.5 | ETA 00:06:48
Time 00:00:50 | Step 664435 / 6000000 | TPS 13398 | ETA 00:06:38
Time 00:01:00 | Step 798355 / 6000000 | TPS 13392 | ETA 00:06:28
Time 00:01:10 | Step 932109 / 6000000 | TPS 13375.3 | ETA 00:06:18
Time 00:01:20 | Step 1065901 / 6000000 | TPS 13379.1 | ETA 00:06:08
Time 00:01:30 | Step 1199806 / 6000000 | TPS 13390.5 | ETA 00:05:58
Time 00:01:40 | Step 1333490 / 6000000 | TPS 13368.4 | ETA 00:05:49
Time 00:01:50 | Step 1467338 / 6000000 | TPS 13384.8 | ETA 00:05:38
Time 00:02:00 | Step 1601006 / 6000000 | TPS 13366.8 | ETA 00:05:29
Time 00:02:10 | Step 1734651 / 6000000 | TPS 13364.5 | ETA 00:05:19
Time 00:02:20 | Step 1868578 / 6000000 | TPS 13392.6 | ETA 00:05:08
Time 00:02:30 | Step 2002333 / 6000000 | TPS 13375.4 | ETA 00:04:58
Time 00:02:40 | Step 2136098 / 6000000 | TPS 13376.4 | ETA 00:04:48
Time 00:02:50 | Step 2269837 / 6000000 | TPS 13373.8 | ETA 00:04:38
Time 00:03:00 | Step 2403716 / 6000000 | TPS 13387.8 | ETA 00:04:28
Time 00:03:10 | Step 2537435 / 6000000 | TPS 13371.9 | ETA 00:04:18
Time 00:03:20 | Step 2671382 / 6000000 | TPS 13394.7 | ETA 00:04:08
Time 00:03:30 | Step 2805155 / 6000000 | TPS 13377.3 | ETA 00:03:58
Time 00:03:40 | Step 2938989 / 6000000 | TPS 13383.3 | ETA 00:03:48
Time 00:03:50 | Step 3072737 / 6000000 | TPS 13374.8 | ETA 00:03:38
Time 00:04:00 | Step 3206596 / 6000000 | TPS 13385.8 | ETA 00:03:28
Time 00:04:10 | Step 3340387 / 6000000 | TPS 13379.1 | ETA 00:03:18
Time 00:04:20 | Step 3474232 / 6000000 | TPS 13384.4 | ETA 00:03:08
Time 00:04:30 | Step 3608004 / 6000000 | TPS 13377 | ETA 00:02:58
Time 00:04:40 | Step 3741726 / 6000000 | TPS 13372.1 | ETA 00:02:48
Time 00:04:50 | Step 3875669 / 6000000 | TPS 13394.2 | ETA 00:02:38
Time 00:05:00 | Step 4009558 / 6000000 | TPS 13388.8 | ETA 00:02:28
Time 00:05:10 | Step 4143460 / 6000000 | TPS 13390.2 | ETA 00:02:18
Time 00:05:20 | Step 4277387 / 6000000 | TPS 13392.7 | ETA 00:02:08
Time 00:05:30 | Step 4411268 / 6000000 | TPS 13388 | ETA 00:01:58
Time 00:05:40 | Step 4545126 / 6000000 | TPS 13385.8 | ETA 00:01:48
Time 00:05:50 | Step 4679082 / 6000000 | TPS 13395.5 | ETA 00:01:38
Time 00:06:00 | Step 4812906 / 6000000 | TPS 13382.4 | ETA 00:01:28
Time 00:06:10 | Step 4946719 / 6000000 | TPS 13381.3 | ETA 00:01:18
Time 00:06:20 | Step 5080572 / 6000000 | TPS 13385.3 | ETA 00:01:08
Time 00:06:30 | Step 5214301 / 6000000 | TPS 13372.8 | ETA 00:00:58
Time 00:06:40 | Step 5348087 / 6000000 | TPS 13378.6 | ETA 00:00:48
Time 00:06:50 | Step 5481818 / 6000000 | TPS 13373 | ETA 00:00:38
Time 00:07:00 | Step 5615643 / 6000000 | TPS 13382.4 | ETA 00:00:28
Time 00:07:10 | Step 5749438 / 6000000 | TPS 13379.5 | ETA 00:00:18
Time 00:07:20 | Step 5883290 / 6000000 | TPS 13385.1 | ETA 00:00:08
Time 00:07:28 | Step 6000000 / 6000000 | TPS 13375.5 | ETA 00:00:00
Average TPS: 13371.1
---------
-- Neighborlist stats:
20095 normal updates / 20000 forced updates / 0 dangerous updates
n_neigh_min: 0 / n_neigh_max: 0 / n_neigh_avg: 0
shortest rebuild period: 99
** run complete **
