HOOMD-blue 2.9.6 CUDA (10.2) DOUBLE HPMC_MIXED TBB SSE SSE2 SSE3 
Compiled: 03/17/2021
Copyright (c) 2009-2019 The Regents of the University of Michigan.
-----
You are using HOOMD-blue. Please cite the following:
* J A Anderson, J Glaser, and S C Glotzer. "HOOMD-blue: A Python package for
  high-performance molecular dynamics and hard particle Monte Carlo
  simulations", Computational Materials Science 173 (2020) 109363
-----
HOOMD-blue is running on the following GPU(s):
 [0]  Tesla P100-PCIE-12GB  56 SM_6.0 @ 1.33 GHz, 12198 MiB DRAM, MNG
run.py:007  |  system = read_gsd("/home/erjank_project/chrisjones/pekk-msibi-final/learning-runs/single-chains/workspace/38e28bcc5ef00d32fd078c86ad2807ba/components.gsd", frame=-1, time_step=0)
notice(2): Group "all" created containing 60 particles
run.py:009  |  nl = hoomd.md.nlist.tree()
-----
You are using tree neighbor lists. Please cite the following:
* M P Howard, J A Anderson, A Nikoubashman, S C Glotzer, and A Z
  Panagiotopoulos. "Efficient neighbor list calculation for molecular simulation
  of colloidal systems using graphics processing units", Computer Physics
  Communications 203 (2016) 45--52
* M P Howard, A Statt, F Madutsa, T M Truskett, and A Z Panagiotopoulos.
  "Quantized bounding volume hierarchies for neighbor search in molecular
  simulations on graphics processing units", Computational Materials Science 164
  (2019) 139--146
-----
run.py:010  |  nl.reset_exclusions(exclusions=['1-2', '1-3'])
notice(2): -- Neighborlist exclusion statistics -- :
notice(2): Particles with 2 exclusions             : 2
notice(2): Particles with 3 exclusions             : 2
notice(2): Particles with 4 exclusions             : 56
notice(2): Neighbors included by diameter          : no
notice(2): Neighbors excluded when in the same body: no
run.py:012  |  lj = hoomd.md.pair.lj(nlist=nl, r_cut=0)
run.py:013  |  lj.pair_coeff.set('E', 'E', epsilon=0, sigma=1, r_cut=0)
run.py:014  |  lj.pair_coeff.set('K', 'K', epsilon=0, sigma=1, r_cut=0)
run.py:015  |  lj.pair_coeff.set('E', 'K', epsilon=0, sigma=1, r_cut=0)
run.py:016  |  harmonic_bond = hoomd.md.bond.harmonic()
run.py:017  |  harmonic_bond.bond_coeff.set('E-K', k=850, r0=1.47)
run.py:018  |  harmonic_bond.bond_coeff.set('K-K', k=1450, r0=1.53)
run.py:019  |  atable = hoomd.md.angle.table(width=200)
run.py:020  |  atable.set_from_file('E-K-K', '/home/erjank_project/chrisjones/pekk-msibi-final/msibi-runs/angles-harmonic-bonds-6.5kT/potentials/angle_pot.E-K-K.txt')
run.py:021  |  atable.set_from_file('K-E-K', '/home/erjank_project/chrisjones/pekk-msibi-final/msibi-runs/angles-harmonic-bonds-6.5kT/potentials/angle_pot.K-E-K.txt')
run.py:023  |  _all = hoomd.group.all()
run.py:024  |  hoomd.md.integrate.mode_standard(0.0003)
run.py:026  |  integrator = hoomd.md.integrate.nvt(group=_all, **integrator_kwargs)
run.py:000  |  
import hoomd
import hoomd.md
from hoomd.init import read_gsd

hoomd.context.initialize("")
system = read_gsd("/home/erjank_project/chrisjones/pekk-msibi-final/learning-runs/single-chains/workspace/38e28bcc5ef00d32fd078c86ad2807ba/components.gsd", frame=-1, time_step=0)

nl = hoomd.md.nlist.tree()
nl.reset_exclusions(exclusions=['1-2', '1-3'])

lj = hoomd.md.pair.lj(nlist=nl, r_cut=0)
lj.pair_coeff.set('E', 'E', epsilon=0, sigma=1, r_cut=0)
lj.pair_coeff.set('K', 'K', epsilon=0, sigma=1, r_cut=0)
lj.pair_coeff.set('E', 'K', epsilon=0, sigma=1, r_cut=0)
harmonic_bond = hoomd.md.bond.harmonic()
harmonic_bond.bond_coeff.set('E-K', k=850, r0=1.47)
harmonic_bond.bond_coeff.set('K-K', k=1450, r0=1.53)
atable = hoomd.md.angle.table(width=200)
atable.set_from_file('E-K-K', '/home/erjank_project/chrisjones/pekk-msibi-final/msibi-runs/angles-harmonic-bonds-6.5kT/potentials/angle_pot.E-K-K.txt')
atable.set_from_file('K-E-K', '/home/erjank_project/chrisjones/pekk-msibi-final/msibi-runs/angles-harmonic-bonds-6.5kT/potentials/angle_pot.K-E-K.txt')

_all = hoomd.group.all()
hoomd.md.integrate.mode_standard(0.0003)
integrator_kwargs = {'tau': 0.01, 'kT': 6.5}
integrator = hoomd.md.integrate.nvt(group=_all, **integrator_kwargs)


hoomd.dump.gsd(
run.py:037  |  hoomd.run(6000000)
** starting run **
Time 00:00:10 | Step 128664 / 6000000 | TPS 12866.3 | ETA 00:07:36
Time 00:00:20 | Step 262382 / 6000000 | TPS 13371.7 | ETA 00:07:09
Time 00:00:30 | Step 396056 / 6000000 | TPS 13367.4 | ETA 00:06:59
Time 00:00:40 | Step 529664 / 6000000 | TPS 13360.7 | ETA 00:06:49
Time 00:00:50 | Step 663417 / 6000000 | TPS 13375.3 | ETA 00:06:38
Time 00:01:00 | Step 797228 / 6000000 | TPS 13381 | ETA 00:06:28
Time 00:01:10 | Step 930780 / 6000000 | TPS 13355.1 | ETA 00:06:19
Time 00:01:20 | Step 1064402 / 6000000 | TPS 13362.1 | ETA 00:06:09
Time 00:01:30 | Step 1198107 / 6000000 | TPS 13370.5 | ETA 00:05:59
Time 00:01:40 | Step 1331784 / 6000000 | TPS 13367.7 | ETA 00:05:49
Time 00:01:50 | Step 1465472 / 6000000 | TPS 13368.8 | ETA 00:05:39
Time 00:02:00 | Step 1599312 / 6000000 | TPS 13384 | ETA 00:05:28
Time 00:02:10 | Step 1732938 / 6000000 | TPS 13362.6 | ETA 00:05:19
Time 00:02:20 | Step 1866669 / 6000000 | TPS 13373.1 | ETA 00:05:09
Time 00:02:30 | Step 2000246 / 6000000 | TPS 13357.7 | ETA 00:04:59
Time 00:02:40 | Step 2133748 / 6000000 | TPS 13350.1 | ETA 00:04:49
Time 00:02:50 | Step 2267252 / 6000000 | TPS 13350.3 | ETA 00:04:39
Time 00:03:00 | Step 2400772 / 6000000 | TPS 13351.9 | ETA 00:04:29
Time 00:03:10 | Step 2534338 / 6000000 | TPS 13356.5 | ETA 00:04:19
Time 00:03:20 | Step 2667912 / 6000000 | TPS 13357.3 | ETA 00:04:09
Time 00:03:30 | Step 2801531 / 6000000 | TPS 13361.9 | ETA 00:03:59
Time 00:03:40 | Step 2935102 / 6000000 | TPS 13357.1 | ETA 00:03:49
Time 00:03:50 | Step 3068692 / 6000000 | TPS 13358.9 | ETA 00:03:39
Time 00:04:00 | Step 3202240 / 6000000 | TPS 13354.8 | ETA 00:03:29
Time 00:04:10 | Step 3335869 / 6000000 | TPS 13362.8 | ETA 00:03:19
Time 00:04:20 | Step 3469435 / 6000000 | TPS 13356.6 | ETA 00:03:09
Time 00:04:30 | Step 3603326 / 6000000 | TPS 13389 | ETA 00:02:59
Time 00:04:40 | Step 3737166 / 6000000 | TPS 13383.9 | ETA 00:02:49
Time 00:04:50 | Step 3871365 / 6000000 | TPS 13419.9 | ETA 00:02:38
Time 00:05:00 | Step 4005554 / 6000000 | TPS 13418.8 | ETA 00:02:28
Time 00:05:10 | Step 4139793 / 6000000 | TPS 13423.9 | ETA 00:02:18
Time 00:05:20 | Step 4274044 / 6000000 | TPS 13425.1 | ETA 00:02:08
Time 00:05:30 | Step 4408230 / 6000000 | TPS 13418.5 | ETA 00:01:58
Time 00:05:40 | Step 4542284 / 6000000 | TPS 13405.4 | ETA 00:01:48
Time 00:05:50 | Step 4676271 / 6000000 | TPS 13398.6 | ETA 00:01:38
Time 00:06:00 | Step 4810315 / 6000000 | TPS 13404.4 | ETA 00:01:28
Time 00:06:10 | Step 4944332 / 6000000 | TPS 13401.7 | ETA 00:01:18
Time 00:06:20 | Step 5078455 / 6000000 | TPS 13412.3 | ETA 00:01:08
Time 00:06:30 | Step 5212503 / 6000000 | TPS 13404.8 | ETA 00:00:58
Time 00:06:40 | Step 5346608 / 6000000 | TPS 13410.4 | ETA 00:00:48
Time 00:06:50 | Step 5480682 / 6000000 | TPS 13407.4 | ETA 00:00:38
Time 00:07:00 | Step 5614989 / 6000000 | TPS 13430.7 | ETA 00:00:28
Time 00:07:10 | Step 5749236 / 6000000 | TPS 13424.6 | ETA 00:00:18
Time 00:07:20 | Step 5883528 / 6000000 | TPS 13429 | ETA 00:00:08
Time 00:07:28 | Step 6000000 / 6000000 | TPS 13423.8 | ETA 00:00:00
Average TPS: 13372.6
---------
-- Neighborlist stats:
20071 normal updates / 20000 forced updates / 0 dangerous updates
n_neigh_min: 0 / n_neigh_max: 0 / n_neigh_avg: 0
shortest rebuild period: 99
** run complete **
