HOOMD-blue 2.9.6 CUDA (10.2) DOUBLE HPMC_MIXED TBB SSE SSE2 SSE3 
Compiled: 03/17/2021
Copyright (c) 2009-2019 The Regents of the University of Michigan.
-----
You are using HOOMD-blue. Please cite the following:
* J A Anderson, J Glaser, and S C Glotzer. "HOOMD-blue: A Python package for
  high-performance molecular dynamics and hard particle Monte Carlo
  simulations", Computational Materials Science 173 (2020) 109363
-----
HOOMD-blue is running on the following GPU(s):
 [0]  Tesla P100-PCIE-12GB  56 SM_6.0 @ 1.33 GHz, 12198 MiB DRAM, MNG
run.py:007  |  system = read_gsd("/home/erjank_project/chrisjones/pekk-msibi-final/learning-runs/single-chains/workspace/0f2d30692a6cdb8fd90ae3f6aec03a03/components.gsd", frame=-1, time_step=0)
notice(2): Group "all" created containing 60 particles
run.py:009  |  nl = hoomd.md.nlist.tree()
-----
You are using tree neighbor lists. Please cite the following:
* M P Howard, J A Anderson, A Nikoubashman, S C Glotzer, and A Z
  Panagiotopoulos. "Efficient neighbor list calculation for molecular simulation
  of colloidal systems using graphics processing units", Computer Physics
  Communications 203 (2016) 45--52
* M P Howard, A Statt, F Madutsa, T M Truskett, and A Z Panagiotopoulos.
  "Quantized bounding volume hierarchies for neighbor search in molecular
  simulations on graphics processing units", Computational Materials Science 164
  (2019) 139--146
-----
run.py:010  |  nl.reset_exclusions(exclusions=['1-2', '1-3'])
notice(2): -- Neighborlist exclusion statistics -- :
notice(2): Particles with 2 exclusions             : 2
notice(2): Particles with 3 exclusions             : 2
notice(2): Particles with 4 exclusions             : 56
notice(2): Neighbors included by diameter          : no
notice(2): Neighbors excluded when in the same body: no
run.py:012  |  lj = hoomd.md.pair.lj(nlist=nl, r_cut=0)
run.py:013  |  lj.pair_coeff.set('E', 'E', epsilon=0, sigma=1, r_cut=0)
run.py:014  |  lj.pair_coeff.set('K', 'K', epsilon=0, sigma=1, r_cut=0)
run.py:015  |  lj.pair_coeff.set('E', 'K', epsilon=0, sigma=1, r_cut=0)
run.py:016  |  harmonic_bond = hoomd.md.bond.harmonic()
run.py:017  |  harmonic_bond.bond_coeff.set('E-K', k=850, r0=1.47)
run.py:018  |  harmonic_bond.bond_coeff.set('K-K', k=1450, r0=1.53)
run.py:019  |  atable = hoomd.md.angle.table(width=200)
run.py:020  |  atable.set_from_file('E-K-K', '/home/erjank_project/chrisjones/pekk-msibi-final/msibi-runs/angles-harmonic-bonds-6.5kT/potentials/angle_pot.E-K-K.txt')
run.py:021  |  atable.set_from_file('K-E-K', '/home/erjank_project/chrisjones/pekk-msibi-final/msibi-runs/angles-harmonic-bonds-6.5kT/potentials/angle_pot.K-E-K.txt')
run.py:023  |  _all = hoomd.group.all()
run.py:024  |  hoomd.md.integrate.mode_standard(0.0003)
run.py:026  |  integrator = hoomd.md.integrate.nvt(group=_all, **integrator_kwargs)
run.py:000  |  
import hoomd
import hoomd.md
from hoomd.init import read_gsd

hoomd.context.initialize("")
system = read_gsd("/home/erjank_project/chrisjones/pekk-msibi-final/learning-runs/single-chains/workspace/0f2d30692a6cdb8fd90ae3f6aec03a03/components.gsd", frame=-1, time_step=0)

nl = hoomd.md.nlist.tree()
nl.reset_exclusions(exclusions=['1-2', '1-3'])

lj = hoomd.md.pair.lj(nlist=nl, r_cut=0)
lj.pair_coeff.set('E', 'E', epsilon=0, sigma=1, r_cut=0)
lj.pair_coeff.set('K', 'K', epsilon=0, sigma=1, r_cut=0)
lj.pair_coeff.set('E', 'K', epsilon=0, sigma=1, r_cut=0)
harmonic_bond = hoomd.md.bond.harmonic()
harmonic_bond.bond_coeff.set('E-K', k=850, r0=1.47)
harmonic_bond.bond_coeff.set('K-K', k=1450, r0=1.53)
atable = hoomd.md.angle.table(width=200)
atable.set_from_file('E-K-K', '/home/erjank_project/chrisjones/pekk-msibi-final/msibi-runs/angles-harmonic-bonds-6.5kT/potentials/angle_pot.E-K-K.txt')
atable.set_from_file('K-E-K', '/home/erjank_project/chrisjones/pekk-msibi-final/msibi-runs/angles-harmonic-bonds-6.5kT/potentials/angle_pot.K-E-K.txt')

_all = hoomd.group.all()
hoomd.md.integrate.mode_standard(0.0003)
integrator_kwargs = {'tau': 0.01, 'kT': 6.5}
integrator = hoomd.md.integrate.nvt(group=_all, **integrator_kwargs)


hoomd.dump.gsd(
run.py:037  |  hoomd.run(6000000)
** starting run **
Time 00:00:10 | Step 130276 / 6000000 | TPS 13027.6 | ETA 00:07:30
Time 00:00:20 | Step 265703 / 6000000 | TPS 13542.6 | ETA 00:07:03
Time 00:00:30 | Step 401180 / 6000000 | TPS 13547.7 | ETA 00:06:53
Time 00:00:40 | Step 536673 / 6000000 | TPS 13549.2 | ETA 00:06:43
Time 00:00:50 | Step 671715 / 6000000 | TPS 13504.1 | ETA 00:06:34
Time 00:01:00 | Step 807268 / 6000000 | TPS 13555.3 | ETA 00:06:23
Time 00:01:10 | Step 942809 / 6000000 | TPS 13553.9 | ETA 00:06:13
Time 00:01:20 | Step 1078280 / 6000000 | TPS 13547 | ETA 00:06:03
Time 00:01:30 | Step 1213612 / 6000000 | TPS 13533.2 | ETA 00:05:53
Time 00:01:40 | Step 1349002 / 6000000 | TPS 13539 | ETA 00:05:43
Time 00:01:50 | Step 1484508 / 6000000 | TPS 13550.6 | ETA 00:05:33
Time 00:02:00 | Step 1619844 / 6000000 | TPS 13533.6 | ETA 00:05:23
Time 00:02:10 | Step 1755323 / 6000000 | TPS 13547.9 | ETA 00:05:13
Time 00:02:20 | Step 1890808 / 6000000 | TPS 13548.5 | ETA 00:05:03
Time 00:02:30 | Step 2026201 / 6000000 | TPS 13539 | ETA 00:04:53
Time 00:02:40 | Step 2161637 / 6000000 | TPS 13543.5 | ETA 00:04:43
Time 00:02:50 | Step 2296988 / 6000000 | TPS 13535.1 | ETA 00:04:33
Time 00:03:00 | Step 2432458 / 6000000 | TPS 13546.9 | ETA 00:04:23
Time 00:03:10 | Step 2567920 / 6000000 | TPS 13546.2 | ETA 00:04:13
Time 00:03:20 | Step 2703265 / 6000000 | TPS 13534.5 | ETA 00:04:03
Time 00:03:30 | Step 2838530 / 6000000 | TPS 13526.4 | ETA 00:03:53
Time 00:03:40 | Step 2973840 / 6000000 | TPS 13530.9 | ETA 00:03:43
Time 00:03:50 | Step 3109090 / 6000000 | TPS 13525 | ETA 00:03:33
Time 00:04:00 | Step 3244560 / 6000000 | TPS 13546.9 | ETA 00:03:23
Time 00:04:10 | Step 3380003 / 6000000 | TPS 13544.3 | ETA 00:03:13
Time 00:04:20 | Step 3515401 / 6000000 | TPS 13539.3 | ETA 00:03:03
Time 00:04:30 | Step 3650877 / 6000000 | TPS 13547.6 | ETA 00:02:53
Time 00:04:40 | Step 3786410 / 6000000 | TPS 13553.2 | ETA 00:02:43
Time 00:04:50 | Step 3921885 / 6000000 | TPS 13547.5 | ETA 00:02:33
Time 00:05:00 | Step 4057351 / 6000000 | TPS 13546.5 | ETA 00:02:23
Time 00:05:10 | Step 4192854 / 6000000 | TPS 13550.3 | ETA 00:02:13
Time 00:05:20 | Step 4328371 / 6000000 | TPS 13551.6 | ETA 00:02:03
Time 00:05:30 | Step 4463852 / 6000000 | TPS 13548.1 | ETA 00:01:53
Time 00:05:40 | Step 4599313 / 6000000 | TPS 13546 | ETA 00:01:43
Time 00:05:50 | Step 4734728 / 6000000 | TPS 13541.5 | ETA 00:01:33
Time 00:06:00 | Step 4870308 / 6000000 | TPS 13558 | ETA 00:01:23
Time 00:06:10 | Step 5005722 / 6000000 | TPS 13541.4 | ETA 00:01:13
Time 00:06:20 | Step 5141067 / 6000000 | TPS 13534.4 | ETA 00:01:03
Time 00:06:30 | Step 5276422 / 6000000 | TPS 13535.5 | ETA 00:00:53
Time 00:06:40 | Step 5411881 / 6000000 | TPS 13545.8 | ETA 00:00:43
Time 00:06:50 | Step 5547282 / 6000000 | TPS 13540.1 | ETA 00:00:33
Time 00:07:00 | Step 5682807 / 6000000 | TPS 13552.4 | ETA 00:00:23
Time 00:07:10 | Step 5818243 / 6000000 | TPS 13543.6 | ETA 00:00:13
Time 00:07:20 | Step 5953779 / 6000000 | TPS 13553.5 | ETA 00:00:03
Time 00:07:23 | Step 6000000 / 6000000 | TPS 13556.8 | ETA 00:00:00
Average TPS: 13531.4
---------
-- Neighborlist stats:
20125 normal updates / 20000 forced updates / 0 dangerous updates
n_neigh_min: 0 / n_neigh_max: 0 / n_neigh_avg: 0
shortest rebuild period: 99
** run complete **
