HOOMD-blue 2.9.6 CUDA (10.2) DOUBLE HPMC_MIXED TBB SSE SSE2 SSE3 
Compiled: 03/17/2021
Copyright (c) 2009-2019 The Regents of the University of Michigan.
-----
You are using HOOMD-blue. Please cite the following:
* J A Anderson, J Glaser, and S C Glotzer. "HOOMD-blue: A Python package for
  high-performance molecular dynamics and hard particle Monte Carlo
  simulations", Computational Materials Science 173 (2020) 109363
-----
HOOMD-blue is running on the following GPU(s):
 [0]  Tesla P100-PCIE-12GB  56 SM_6.0 @ 1.33 GHz, 12198 MiB DRAM, MNG
run.py:007  |  system = read_gsd("/home/erjank_project/chrisjones/pekk-msibi-final/learning-runs/single-chains/workspace/0f2d30692a6cdb8fd90ae3f6aec03a03/components.gsd", frame=-1, time_step=0)
notice(2): Group "all" created containing 60 particles
run.py:009  |  nl = hoomd.md.nlist.tree()
-----
You are using tree neighbor lists. Please cite the following:
* M P Howard, J A Anderson, A Nikoubashman, S C Glotzer, and A Z
  Panagiotopoulos. "Efficient neighbor list calculation for molecular simulation
  of colloidal systems using graphics processing units", Computer Physics
  Communications 203 (2016) 45--52
* M P Howard, A Statt, F Madutsa, T M Truskett, and A Z Panagiotopoulos.
  "Quantized bounding volume hierarchies for neighbor search in molecular
  simulations on graphics processing units", Computational Materials Science 164
  (2019) 139--146
-----
run.py:010  |  nl.reset_exclusions(exclusions=['1-2', '1-3'])
notice(2): -- Neighborlist exclusion statistics -- :
notice(2): Particles with 2 exclusions             : 2
notice(2): Particles with 3 exclusions             : 2
notice(2): Particles with 4 exclusions             : 56
notice(2): Neighbors included by diameter          : no
notice(2): Neighbors excluded when in the same body: no
run.py:012  |  lj = hoomd.md.pair.lj(nlist=nl, r_cut=0)
run.py:013  |  lj.pair_coeff.set('E', 'E', epsilon=0, sigma=1, r_cut=0)
run.py:014  |  lj.pair_coeff.set('K', 'K', epsilon=0, sigma=1, r_cut=0)
run.py:015  |  lj.pair_coeff.set('E', 'K', epsilon=0, sigma=1, r_cut=0)
run.py:016  |  harmonic_bond = hoomd.md.bond.harmonic()
run.py:017  |  harmonic_bond.bond_coeff.set('E-K', k=850, r0=1.47)
run.py:018  |  harmonic_bond.bond_coeff.set('K-K', k=1450, r0=1.53)
run.py:019  |  atable = hoomd.md.angle.table(width=200)
run.py:020  |  atable.set_from_file('E-K-K', '/home/erjank_project/chrisjones/pekk-msibi-final/msibi-runs/angles-harmonic-bonds-6.5kT/potentials/angle_pot.E-K-K.txt')
run.py:021  |  atable.set_from_file('K-E-K', '/home/erjank_project/chrisjones/pekk-msibi-final/msibi-runs/angles-harmonic-bonds-6.5kT/potentials/angle_pot.K-E-K.txt')
run.py:023  |  _all = hoomd.group.all()
run.py:024  |  hoomd.md.integrate.mode_standard(0.0003)
run.py:026  |  integrator = hoomd.md.integrate.nvt(group=_all, **integrator_kwargs)
run.py:000  |  
import hoomd
import hoomd.md
from hoomd.init import read_gsd

hoomd.context.initialize("")
system = read_gsd("/home/erjank_project/chrisjones/pekk-msibi-final/learning-runs/single-chains/workspace/0f2d30692a6cdb8fd90ae3f6aec03a03/components.gsd", frame=-1, time_step=0)

nl = hoomd.md.nlist.tree()
nl.reset_exclusions(exclusions=['1-2', '1-3'])

lj = hoomd.md.pair.lj(nlist=nl, r_cut=0)
lj.pair_coeff.set('E', 'E', epsilon=0, sigma=1, r_cut=0)
lj.pair_coeff.set('K', 'K', epsilon=0, sigma=1, r_cut=0)
lj.pair_coeff.set('E', 'K', epsilon=0, sigma=1, r_cut=0)
harmonic_bond = hoomd.md.bond.harmonic()
harmonic_bond.bond_coeff.set('E-K', k=850, r0=1.47)
harmonic_bond.bond_coeff.set('K-K', k=1450, r0=1.53)
atable = hoomd.md.angle.table(width=200)
atable.set_from_file('E-K-K', '/home/erjank_project/chrisjones/pekk-msibi-final/msibi-runs/angles-harmonic-bonds-6.5kT/potentials/angle_pot.E-K-K.txt')
atable.set_from_file('K-E-K', '/home/erjank_project/chrisjones/pekk-msibi-final/msibi-runs/angles-harmonic-bonds-6.5kT/potentials/angle_pot.K-E-K.txt')

_all = hoomd.group.all()
hoomd.md.integrate.mode_standard(0.0003)
integrator_kwargs = {'tau': 0.01, 'kT': 6.5}
integrator = hoomd.md.integrate.nvt(group=_all, **integrator_kwargs)


hoomd.dump.gsd(
run.py:037  |  hoomd.run(6000000)
** starting run **
Time 00:00:10 | Step 130026 / 6000000 | TPS 13002.5 | ETA 00:07:31
Time 00:00:20 | Step 265072 / 6000000 | TPS 13504.5 | ETA 00:07:04
Time 00:00:30 | Step 400164 / 6000000 | TPS 13509.2 | ETA 00:06:54
Time 00:00:40 | Step 535413 / 6000000 | TPS 13524.8 | ETA 00:06:44
Time 00:00:50 | Step 670465 / 6000000 | TPS 13505.1 | ETA 00:06:34
Time 00:01:00 | Step 805764 / 6000000 | TPS 13529.8 | ETA 00:06:23
Time 00:01:10 | Step 941026 / 6000000 | TPS 13526.2 | ETA 00:06:14
Time 00:01:20 | Step 1076488 / 6000000 | TPS 13546.2 | ETA 00:06:03
Time 00:01:30 | Step 1211679 / 6000000 | TPS 13519 | ETA 00:05:54
Time 00:01:40 | Step 1346935 / 6000000 | TPS 13525.5 | ETA 00:05:44
Time 00:01:50 | Step 1482007 / 6000000 | TPS 13507.2 | ETA 00:05:34
Time 00:02:00 | Step 1617147 / 6000000 | TPS 13513.9 | ETA 00:05:24
Time 00:02:10 | Step 1752245 / 6000000 | TPS 13509.7 | ETA 00:05:14
Time 00:02:20 | Step 1887383 / 6000000 | TPS 13513.8 | ETA 00:05:04
Time 00:02:30 | Step 2022537 / 6000000 | TPS 13515.4 | ETA 00:04:54
Time 00:02:40 | Step 2157668 / 6000000 | TPS 13513.1 | ETA 00:04:44
Time 00:02:50 | Step 2292800 / 6000000 | TPS 13513.2 | ETA 00:04:34
Time 00:03:00 | Step 2427813 / 6000000 | TPS 13501.3 | ETA 00:04:24
Time 00:03:10 | Step 2562734 / 6000000 | TPS 13492.1 | ETA 00:04:14
Time 00:03:20 | Step 2697794 / 6000000 | TPS 13506 | ETA 00:04:04
Time 00:03:30 | Step 2832778 / 6000000 | TPS 13498.4 | ETA 00:03:54
Time 00:03:40 | Step 2967929 / 6000000 | TPS 13515.1 | ETA 00:03:44
Time 00:03:50 | Step 3102946 / 6000000 | TPS 13501.7 | ETA 00:03:34
Time 00:04:00 | Step 3237950 / 6000000 | TPS 13500.3 | ETA 00:03:24
Time 00:04:10 | Step 3373033 / 6000000 | TPS 13508.2 | ETA 00:03:14
Time 00:04:20 | Step 3507824 / 6000000 | TPS 13479 | ETA 00:03:04
Time 00:04:30 | Step 3642838 / 6000000 | TPS 13501.4 | ETA 00:02:54
Time 00:04:40 | Step 3777947 / 6000000 | TPS 13510.8 | ETA 00:02:44
Time 00:04:50 | Step 3913014 / 6000000 | TPS 13506.7 | ETA 00:02:34
Time 00:05:00 | Step 4048218 / 6000000 | TPS 13520.4 | ETA 00:02:24
Time 00:05:10 | Step 4183367 / 6000000 | TPS 13514.9 | ETA 00:02:14
Time 00:05:20 | Step 4318359 / 6000000 | TPS 13499.2 | ETA 00:02:04
Time 00:05:30 | Step 4453496 / 6000000 | TPS 13513.7 | ETA 00:01:54
Time 00:05:40 | Step 4588631 / 6000000 | TPS 13513.4 | ETA 00:01:44
Time 00:05:50 | Step 4723701 / 6000000 | TPS 13507 | ETA 00:01:34
Time 00:06:00 | Step 4858734 / 6000000 | TPS 13503.2 | ETA 00:01:24
Time 00:06:10 | Step 4993603 / 6000000 | TPS 13486.9 | ETA 00:01:14
Time 00:06:20 | Step 5128466 / 6000000 | TPS 13486.3 | ETA 00:01:04
Time 00:06:30 | Step 5263418 / 6000000 | TPS 13495.1 | ETA 00:00:54
Time 00:06:40 | Step 5398552 / 6000000 | TPS 13513.3 | ETA 00:00:44
Time 00:06:50 | Step 5533466 / 6000000 | TPS 13491.4 | ETA 00:00:34
Time 00:07:00 | Step 5668606 / 6000000 | TPS 13513.9 | ETA 00:00:24
Time 00:07:10 | Step 5803758 / 6000000 | TPS 13515.2 | ETA 00:00:14
Time 00:07:20 | Step 5939081 / 6000000 | TPS 13532.2 | ETA 00:00:04
Time 00:07:24 | Step 6000000 / 6000000 | TPS 13525.3 | ETA 00:00:00
Average TPS: 13498.1
---------
-- Neighborlist stats:
20120 normal updates / 20000 forced updates / 0 dangerous updates
n_neigh_min: 0 / n_neigh_max: 0 / n_neigh_avg: 0
shortest rebuild period: 99
** run complete **
