HOOMD-blue 2.9.6 CUDA (10.2) DOUBLE HPMC_MIXED TBB SSE SSE2 SSE3 
Compiled: 03/17/2021
Copyright (c) 2009-2019 The Regents of the University of Michigan.
-----
You are using HOOMD-blue. Please cite the following:
* J A Anderson, J Glaser, and S C Glotzer. "HOOMD-blue: A Python package for
  high-performance molecular dynamics and hard particle Monte Carlo
  simulations", Computational Materials Science 173 (2020) 109363
-----
HOOMD-blue is running on the following GPU(s):
 [0]  Tesla P100-PCIE-12GB  56 SM_6.0 @ 1.33 GHz, 12198 MiB DRAM, MNG
run.py:007  |  system = read_gsd("/home/erjank_project/chrisjones/pekk-msibi-final/learning-runs/single-chains/workspace/0f2d30692a6cdb8fd90ae3f6aec03a03/components.gsd", frame=-1, time_step=0)
notice(2): Group "all" created containing 60 particles
run.py:009  |  nl = hoomd.md.nlist.tree()
-----
You are using tree neighbor lists. Please cite the following:
* M P Howard, J A Anderson, A Nikoubashman, S C Glotzer, and A Z
  Panagiotopoulos. "Efficient neighbor list calculation for molecular simulation
  of colloidal systems using graphics processing units", Computer Physics
  Communications 203 (2016) 45--52
* M P Howard, A Statt, F Madutsa, T M Truskett, and A Z Panagiotopoulos.
  "Quantized bounding volume hierarchies for neighbor search in molecular
  simulations on graphics processing units", Computational Materials Science 164
  (2019) 139--146
-----
run.py:010  |  nl.reset_exclusions(exclusions=['1-2', '1-3'])
notice(2): -- Neighborlist exclusion statistics -- :
notice(2): Particles with 2 exclusions             : 2
notice(2): Particles with 3 exclusions             : 2
notice(2): Particles with 4 exclusions             : 56
notice(2): Neighbors included by diameter          : no
notice(2): Neighbors excluded when in the same body: no
run.py:012  |  lj = hoomd.md.pair.lj(nlist=nl, r_cut=0)
run.py:013  |  lj.pair_coeff.set('E', 'E', epsilon=0, sigma=1, r_cut=0)
run.py:014  |  lj.pair_coeff.set('K', 'K', epsilon=0, sigma=1, r_cut=0)
run.py:015  |  lj.pair_coeff.set('E', 'K', epsilon=0, sigma=1, r_cut=0)
run.py:016  |  harmonic_bond = hoomd.md.bond.harmonic()
run.py:017  |  harmonic_bond.bond_coeff.set('E-K', k=850, r0=1.47)
run.py:018  |  harmonic_bond.bond_coeff.set('K-K', k=1450, r0=1.53)
run.py:019  |  atable = hoomd.md.angle.table(width=200)
run.py:020  |  atable.set_from_file('E-K-K', '/home/erjank_project/chrisjones/pekk-msibi-final/msibi-runs/angles-harmonic-bonds-6.5kT/potentials/angle_pot.E-K-K.txt')
run.py:021  |  atable.set_from_file('K-E-K', '/home/erjank_project/chrisjones/pekk-msibi-final/msibi-runs/angles-harmonic-bonds-6.5kT/potentials/angle_pot.K-E-K.txt')
run.py:023  |  _all = hoomd.group.all()
run.py:024  |  hoomd.md.integrate.mode_standard(0.0003)
run.py:026  |  integrator = hoomd.md.integrate.nvt(group=_all, **integrator_kwargs)
run.py:000  |  
import hoomd
import hoomd.md
from hoomd.init import read_gsd

hoomd.context.initialize("")
system = read_gsd("/home/erjank_project/chrisjones/pekk-msibi-final/learning-runs/single-chains/workspace/0f2d30692a6cdb8fd90ae3f6aec03a03/components.gsd", frame=-1, time_step=0)

nl = hoomd.md.nlist.tree()
nl.reset_exclusions(exclusions=['1-2', '1-3'])

lj = hoomd.md.pair.lj(nlist=nl, r_cut=0)
lj.pair_coeff.set('E', 'E', epsilon=0, sigma=1, r_cut=0)
lj.pair_coeff.set('K', 'K', epsilon=0, sigma=1, r_cut=0)
lj.pair_coeff.set('E', 'K', epsilon=0, sigma=1, r_cut=0)
harmonic_bond = hoomd.md.bond.harmonic()
harmonic_bond.bond_coeff.set('E-K', k=850, r0=1.47)
harmonic_bond.bond_coeff.set('K-K', k=1450, r0=1.53)
atable = hoomd.md.angle.table(width=200)
atable.set_from_file('E-K-K', '/home/erjank_project/chrisjones/pekk-msibi-final/msibi-runs/angles-harmonic-bonds-6.5kT/potentials/angle_pot.E-K-K.txt')
atable.set_from_file('K-E-K', '/home/erjank_project/chrisjones/pekk-msibi-final/msibi-runs/angles-harmonic-bonds-6.5kT/potentials/angle_pot.K-E-K.txt')

_all = hoomd.group.all()
hoomd.md.integrate.mode_standard(0.0003)
integrator_kwargs = {'tau': 0.01, 'kT': 6.5}
integrator = hoomd.md.integrate.nvt(group=_all, **integrator_kwargs)


hoomd.dump.gsd(
run.py:037  |  hoomd.run(6000000)
** starting run **
Time 00:00:10 | Step 128442 / 6000000 | TPS 12844.2 | ETA 00:07:37
Time 00:00:20 | Step 261661 / 6000000 | TPS 13321.9 | ETA 00:07:10
Time 00:00:30 | Step 394981 / 6000000 | TPS 13332 | ETA 00:07:00
Time 00:00:40 | Step 528179 / 6000000 | TPS 13319.7 | ETA 00:06:50
Time 00:00:50 | Step 661501 / 6000000 | TPS 13331.8 | ETA 00:06:40
Time 00:01:00 | Step 794704 / 6000000 | TPS 13320.2 | ETA 00:06:30
Time 00:01:10 | Step 928038 / 6000000 | TPS 13333.4 | ETA 00:06:20
Time 00:01:20 | Step 1061328 / 6000000 | TPS 13328.9 | ETA 00:06:10
Time 00:01:30 | Step 1194749 / 6000000 | TPS 13342.1 | ETA 00:06:00
Time 00:01:40 | Step 1327783 / 6000000 | TPS 13303.3 | ETA 00:05:51
Time 00:01:50 | Step 1461110 / 6000000 | TPS 13332.7 | ETA 00:05:40
Time 00:02:00 | Step 1594341 / 6000000 | TPS 13323.1 | ETA 00:05:30
Time 00:02:10 | Step 1727601 / 6000000 | TPS 13325.9 | ETA 00:05:20
Time 00:02:20 | Step 1860769 / 6000000 | TPS 13316.7 | ETA 00:05:10
Time 00:02:30 | Step 1994101 / 6000000 | TPS 13332.7 | ETA 00:05:00
Time 00:02:40 | Step 2127186 / 6000000 | TPS 13308.4 | ETA 00:04:51
Time 00:02:50 | Step 2260439 / 6000000 | TPS 13325.2 | ETA 00:04:40
Time 00:03:00 | Step 2393733 / 6000000 | TPS 13329.3 | ETA 00:04:30
Time 00:03:10 | Step 2527025 / 6000000 | TPS 13329.1 | ETA 00:04:20
Time 00:03:20 | Step 2660307 / 6000000 | TPS 13328.2 | ETA 00:04:10
Time 00:03:30 | Step 2793455 / 6000000 | TPS 13314.8 | ETA 00:04:00
Time 00:03:40 | Step 2926739 / 6000000 | TPS 13328.3 | ETA 00:03:50
Time 00:03:50 | Step 3059839 / 6000000 | TPS 13310 | ETA 00:03:40
Time 00:04:00 | Step 3192987 / 6000000 | TPS 13314.8 | ETA 00:03:30
Time 00:04:10 | Step 3326210 / 6000000 | TPS 13322.2 | ETA 00:03:20
Time 00:04:20 | Step 3459544 / 6000000 | TPS 13333.3 | ETA 00:03:10
Time 00:04:30 | Step 3592912 / 6000000 | TPS 13336.8 | ETA 00:03:00
Time 00:04:40 | Step 3726180 / 6000000 | TPS 13326.8 | ETA 00:02:50
Time 00:04:50 | Step 3859433 / 6000000 | TPS 13325.3 | ETA 00:02:40
Time 00:05:00 | Step 3992585 / 6000000 | TPS 13315.1 | ETA 00:02:30
Time 00:05:10 | Step 4125816 / 6000000 | TPS 13323 | ETA 00:02:20
Time 00:05:20 | Step 4259045 / 6000000 | TPS 13322.8 | ETA 00:02:10
Time 00:05:30 | Step 4392217 / 6000000 | TPS 13317.1 | ETA 00:02:00
Time 00:05:40 | Step 4525162 / 6000000 | TPS 13294.4 | ETA 00:01:50
Time 00:05:50 | Step 4658288 / 6000000 | TPS 13312.5 | ETA 00:01:40
Time 00:06:00 | Step 4791433 / 6000000 | TPS 13314.4 | ETA 00:01:30
Time 00:06:10 | Step 4924623 / 6000000 | TPS 13319 | ETA 00:01:20
Time 00:06:20 | Step 5057809 / 6000000 | TPS 13318.5 | ETA 00:01:10
Time 00:06:30 | Step 5191051 / 6000000 | TPS 13324.2 | ETA 00:01:00
Time 00:06:40 | Step 5324115 / 6000000 | TPS 13306.3 | ETA 00:00:50
Time 00:06:50 | Step 5457233 / 6000000 | TPS 13311.7 | ETA 00:00:40
Time 00:07:00 | Step 5590466 / 6000000 | TPS 13323.2 | ETA 00:00:30
Time 00:07:10 | Step 5723553 / 6000000 | TPS 13308.6 | ETA 00:00:20
Time 00:07:20 | Step 5856903 / 6000000 | TPS 13334.9 | ETA 00:00:10
Time 00:07:30 | Step 5990181 / 6000000 | TPS 13327.7 | ETA 00:00:00
Time 00:07:30 | Step 6000000 / 6000000 | TPS 13313 | ETA 00:00:00
Average TPS: 13311.4
---------
-- Neighborlist stats:
20109 normal updates / 20000 forced updates / 0 dangerous updates
n_neigh_min: 0 / n_neigh_max: 0 / n_neigh_avg: 0
shortest rebuild period: 99
** run complete **
