HOOMD-blue 2.9.6 CUDA (10.2) DOUBLE HPMC_MIXED TBB SSE SSE2 SSE3 
Compiled: 03/17/2021
Copyright (c) 2009-2019 The Regents of the University of Michigan.
-----
You are using HOOMD-blue. Please cite the following:
* J A Anderson, J Glaser, and S C Glotzer. "HOOMD-blue: A Python package for
  high-performance molecular dynamics and hard particle Monte Carlo
  simulations", Computational Materials Science 173 (2020) 109363
-----
HOOMD-blue is running on the following GPU(s):
 [0]  Tesla P100-PCIE-12GB  56 SM_6.0 @ 1.33 GHz, 12198 MiB DRAM, MNG
run.py:007  |  system = read_gsd("/home/erjank_project/chrisjones/pekk-msibi-final/learning-runs/single-chains/workspace/0f2d30692a6cdb8fd90ae3f6aec03a03/components.gsd", frame=-1, time_step=0)
notice(2): Group "all" created containing 60 particles
run.py:009  |  nl = hoomd.md.nlist.tree()
-----
You are using tree neighbor lists. Please cite the following:
* M P Howard, J A Anderson, A Nikoubashman, S C Glotzer, and A Z
  Panagiotopoulos. "Efficient neighbor list calculation for molecular simulation
  of colloidal systems using graphics processing units", Computer Physics
  Communications 203 (2016) 45--52
* M P Howard, A Statt, F Madutsa, T M Truskett, and A Z Panagiotopoulos.
  "Quantized bounding volume hierarchies for neighbor search in molecular
  simulations on graphics processing units", Computational Materials Science 164
  (2019) 139--146
-----
run.py:010  |  nl.reset_exclusions(exclusions=['1-2', '1-3'])
notice(2): -- Neighborlist exclusion statistics -- :
notice(2): Particles with 2 exclusions             : 2
notice(2): Particles with 3 exclusions             : 2
notice(2): Particles with 4 exclusions             : 56
notice(2): Neighbors included by diameter          : no
notice(2): Neighbors excluded when in the same body: no
run.py:012  |  lj = hoomd.md.pair.lj(nlist=nl, r_cut=0)
run.py:013  |  lj.pair_coeff.set('E', 'E', epsilon=0, sigma=1, r_cut=0)
run.py:014  |  lj.pair_coeff.set('K', 'K', epsilon=0, sigma=1, r_cut=0)
run.py:015  |  lj.pair_coeff.set('E', 'K', epsilon=0, sigma=1, r_cut=0)
run.py:016  |  harmonic_bond = hoomd.md.bond.harmonic()
run.py:017  |  harmonic_bond.bond_coeff.set('E-K', k=850, r0=1.47)
run.py:018  |  harmonic_bond.bond_coeff.set('K-K', k=1450, r0=1.53)
run.py:019  |  atable = hoomd.md.angle.table(width=200)
run.py:020  |  atable.set_from_file('E-K-K', '/home/erjank_project/chrisjones/pekk-msibi-final/msibi-runs/angles-harmonic-bonds-6.5kT/potentials/angle_pot.E-K-K.txt')
run.py:021  |  atable.set_from_file('K-E-K', '/home/erjank_project/chrisjones/pekk-msibi-final/msibi-runs/angles-harmonic-bonds-6.5kT/potentials/angle_pot.K-E-K.txt')
run.py:023  |  _all = hoomd.group.all()
run.py:024  |  hoomd.md.integrate.mode_standard(0.0003)
run.py:026  |  integrator = hoomd.md.integrate.nvt(group=_all, **integrator_kwargs)
run.py:000  |  
import hoomd
import hoomd.md
from hoomd.init import read_gsd

hoomd.context.initialize("")
system = read_gsd("/home/erjank_project/chrisjones/pekk-msibi-final/learning-runs/single-chains/workspace/0f2d30692a6cdb8fd90ae3f6aec03a03/components.gsd", frame=-1, time_step=0)

nl = hoomd.md.nlist.tree()
nl.reset_exclusions(exclusions=['1-2', '1-3'])

lj = hoomd.md.pair.lj(nlist=nl, r_cut=0)
lj.pair_coeff.set('E', 'E', epsilon=0, sigma=1, r_cut=0)
lj.pair_coeff.set('K', 'K', epsilon=0, sigma=1, r_cut=0)
lj.pair_coeff.set('E', 'K', epsilon=0, sigma=1, r_cut=0)
harmonic_bond = hoomd.md.bond.harmonic()
harmonic_bond.bond_coeff.set('E-K', k=850, r0=1.47)
harmonic_bond.bond_coeff.set('K-K', k=1450, r0=1.53)
atable = hoomd.md.angle.table(width=200)
atable.set_from_file('E-K-K', '/home/erjank_project/chrisjones/pekk-msibi-final/msibi-runs/angles-harmonic-bonds-6.5kT/potentials/angle_pot.E-K-K.txt')
atable.set_from_file('K-E-K', '/home/erjank_project/chrisjones/pekk-msibi-final/msibi-runs/angles-harmonic-bonds-6.5kT/potentials/angle_pot.K-E-K.txt')

_all = hoomd.group.all()
hoomd.md.integrate.mode_standard(0.0003)
integrator_kwargs = {'tau': 0.01, 'kT': 6.5}
integrator = hoomd.md.integrate.nvt(group=_all, **integrator_kwargs)


hoomd.dump.gsd(
run.py:037  |  hoomd.run(6000000)
** starting run **
Time 00:00:10 | Step 130821 / 6000000 | TPS 13082.1 | ETA 00:07:28
Time 00:00:20 | Step 266490 / 6000000 | TPS 13566.9 | ETA 00:07:02
Time 00:00:30 | Step 402207 / 6000000 | TPS 13571.6 | ETA 00:06:52
Time 00:00:40 | Step 538027 / 6000000 | TPS 13581.9 | ETA 00:06:42
Time 00:00:50 | Step 673801 / 6000000 | TPS 13577.1 | ETA 00:06:32
Time 00:01:00 | Step 809616 / 6000000 | TPS 13581.4 | ETA 00:06:22
Time 00:01:10 | Step 945424 / 6000000 | TPS 13580.8 | ETA 00:06:12
Time 00:01:20 | Step 1081309 / 6000000 | TPS 13588.5 | ETA 00:06:01
Time 00:01:30 | Step 1217002 / 6000000 | TPS 13569.2 | ETA 00:05:52
Time 00:01:40 | Step 1352795 / 6000000 | TPS 13579.2 | ETA 00:05:42
Time 00:01:50 | Step 1488499 / 6000000 | TPS 13570.3 | ETA 00:05:32
Time 00:02:00 | Step 1624078 / 6000000 | TPS 13557.9 | ETA 00:05:22
Time 00:02:10 | Step 1759869 / 6000000 | TPS 13579 | ETA 00:05:12
Time 00:02:20 | Step 1895684 / 6000000 | TPS 13581.5 | ETA 00:05:02
Time 00:02:30 | Step 2031285 / 6000000 | TPS 13560.1 | ETA 00:04:52
Time 00:02:40 | Step 2167027 / 6000000 | TPS 13574.1 | ETA 00:04:42
Time 00:02:50 | Step 2302754 / 6000000 | TPS 13572.6 | ETA 00:04:32
Time 00:03:00 | Step 2438542 / 6000000 | TPS 13578.7 | ETA 00:04:22
Time 00:03:10 | Step 2574414 / 6000000 | TPS 13587.2 | ETA 00:04:12
Time 00:03:20 | Step 2710191 / 6000000 | TPS 13577.6 | ETA 00:04:02
Time 00:03:30 | Step 2845908 / 6000000 | TPS 13571.7 | ETA 00:03:52
Time 00:03:40 | Step 2981739 / 6000000 | TPS 13583 | ETA 00:03:42
Time 00:03:50 | Step 3117420 / 6000000 | TPS 13568.1 | ETA 00:03:32
Time 00:04:00 | Step 3253253 / 6000000 | TPS 13583.2 | ETA 00:03:22
Time 00:04:10 | Step 3389114 / 6000000 | TPS 13586.1 | ETA 00:03:12
Time 00:04:20 | Step 3524843 / 6000000 | TPS 13572.8 | ETA 00:03:02
Time 00:04:30 | Step 3660809 / 6000000 | TPS 13596.5 | ETA 00:02:52
Time 00:04:40 | Step 3796785 / 6000000 | TPS 13597.6 | ETA 00:02:42
Time 00:04:50 | Step 3932617 / 6000000 | TPS 13583.2 | ETA 00:02:32
Time 00:05:00 | Step 4068467 / 6000000 | TPS 13585 | ETA 00:02:22
Time 00:05:10 | Step 4204354 / 6000000 | TPS 13588.6 | ETA 00:02:12
Time 00:05:20 | Step 4340251 / 6000000 | TPS 13589.6 | ETA 00:02:02
Time 00:05:30 | Step 4476163 / 6000000 | TPS 13591.2 | ETA 00:01:52
Time 00:05:40 | Step 4612015 / 6000000 | TPS 13585.2 | ETA 00:01:42
Time 00:05:50 | Step 4747916 / 6000000 | TPS 13590.1 | ETA 00:01:32
Time 00:06:00 | Step 4883968 / 6000000 | TPS 13605.1 | ETA 00:01:22
Time 00:06:10 | Step 5019851 / 6000000 | TPS 13588.3 | ETA 00:01:12
Time 00:06:20 | Step 5155829 / 6000000 | TPS 13597.7 | ETA 00:01:02
Time 00:06:30 | Step 5291798 / 6000000 | TPS 13596.8 | ETA 00:00:52
Time 00:06:40 | Step 5427632 / 6000000 | TPS 13583.4 | ETA 00:00:42
Time 00:06:50 | Step 5563428 / 6000000 | TPS 13579.5 | ETA 00:00:32
Time 00:07:00 | Step 5699376 / 6000000 | TPS 13594.8 | ETA 00:00:22
Time 00:07:10 | Step 5835301 / 6000000 | TPS 13592 | ETA 00:00:12
Time 00:07:20 | Step 5971178 / 6000000 | TPS 13587.7 | ETA 00:00:02
Time 00:07:22 | Step 6000000 / 6000000 | TPS 13592.2 | ETA 00:00:00
Average TPS: 13570.9
---------
-- Neighborlist stats:
20137 normal updates / 20000 forced updates / 0 dangerous updates
n_neigh_min: 0 / n_neigh_max: 0 / n_neigh_avg: 0
shortest rebuild period: 99
** run complete **
