HOOMD-blue 2.9.6 CUDA (10.2) DOUBLE HPMC_MIXED TBB SSE SSE2 SSE3 
Compiled: 03/17/2021
Copyright (c) 2009-2019 The Regents of the University of Michigan.
-----
You are using HOOMD-blue. Please cite the following:
* J A Anderson, J Glaser, and S C Glotzer. "HOOMD-blue: A Python package for
  high-performance molecular dynamics and hard particle Monte Carlo
  simulations", Computational Materials Science 173 (2020) 109363
-----
HOOMD-blue is running on the following GPU(s):
 [0]  Tesla P100-PCIE-12GB  56 SM_6.0 @ 1.33 GHz, 12198 MiB DRAM, MNG
run.py:007  |  system = read_gsd("/home/erjank_project/chrisjones/pekk-msibi-final/learning-runs/single-chains/workspace/406ebab1bb7367f5094f47bcde8b8e44/components.gsd", frame=-1, time_step=0)
notice(2): Group "all" created containing 60 particles
run.py:009  |  nl = hoomd.md.nlist.tree()
-----
You are using tree neighbor lists. Please cite the following:
* M P Howard, J A Anderson, A Nikoubashman, S C Glotzer, and A Z
  Panagiotopoulos. "Efficient neighbor list calculation for molecular simulation
  of colloidal systems using graphics processing units", Computer Physics
  Communications 203 (2016) 45--52
* M P Howard, A Statt, F Madutsa, T M Truskett, and A Z Panagiotopoulos.
  "Quantized bounding volume hierarchies for neighbor search in molecular
  simulations on graphics processing units", Computational Materials Science 164
  (2019) 139--146
-----
run.py:010  |  nl.reset_exclusions(exclusions=['1-2', '1-3'])
notice(2): -- Neighborlist exclusion statistics -- :
notice(2): Particles with 2 exclusions             : 2
notice(2): Particles with 3 exclusions             : 2
notice(2): Particles with 4 exclusions             : 56
notice(2): Neighbors included by diameter          : no
notice(2): Neighbors excluded when in the same body: no
run.py:012  |  lj = hoomd.md.pair.lj(nlist=nl, r_cut=0)
run.py:013  |  lj.pair_coeff.set('E', 'E', epsilon=0, sigma=1, r_cut=0)
run.py:014  |  lj.pair_coeff.set('K', 'K', epsilon=0, sigma=1, r_cut=0)
run.py:015  |  lj.pair_coeff.set('E', 'K', epsilon=0, sigma=1, r_cut=0)
run.py:016  |  harmonic_bond = hoomd.md.bond.harmonic()
run.py:017  |  harmonic_bond.bond_coeff.set('E-K', k=850, r0=1.47)
run.py:018  |  harmonic_bond.bond_coeff.set('K-K', k=1450, r0=1.53)
run.py:019  |  atable = hoomd.md.angle.table(width=200)
run.py:020  |  atable.set_from_file('E-K-K', '/home/erjank_project/chrisjones/pekk-msibi-final/msibi-runs/angles-harmonic-bonds-6.5kT/potentials/angle_pot.E-K-K.txt')
run.py:021  |  atable.set_from_file('K-E-K', '/home/erjank_project/chrisjones/pekk-msibi-final/msibi-runs/angles-harmonic-bonds-6.5kT/potentials/angle_pot.K-E-K.txt')
run.py:023  |  _all = hoomd.group.all()
run.py:024  |  hoomd.md.integrate.mode_standard(0.0003)
run.py:026  |  integrator = hoomd.md.integrate.nvt(group=_all, **integrator_kwargs)
run.py:000  |  
import hoomd
import hoomd.md
from hoomd.init import read_gsd

hoomd.context.initialize("")
system = read_gsd("/home/erjank_project/chrisjones/pekk-msibi-final/learning-runs/single-chains/workspace/406ebab1bb7367f5094f47bcde8b8e44/components.gsd", frame=-1, time_step=0)

nl = hoomd.md.nlist.tree()
nl.reset_exclusions(exclusions=['1-2', '1-3'])

lj = hoomd.md.pair.lj(nlist=nl, r_cut=0)
lj.pair_coeff.set('E', 'E', epsilon=0, sigma=1, r_cut=0)
lj.pair_coeff.set('K', 'K', epsilon=0, sigma=1, r_cut=0)
lj.pair_coeff.set('E', 'K', epsilon=0, sigma=1, r_cut=0)
harmonic_bond = hoomd.md.bond.harmonic()
harmonic_bond.bond_coeff.set('E-K', k=850, r0=1.47)
harmonic_bond.bond_coeff.set('K-K', k=1450, r0=1.53)
atable = hoomd.md.angle.table(width=200)
atable.set_from_file('E-K-K', '/home/erjank_project/chrisjones/pekk-msibi-final/msibi-runs/angles-harmonic-bonds-6.5kT/potentials/angle_pot.E-K-K.txt')
atable.set_from_file('K-E-K', '/home/erjank_project/chrisjones/pekk-msibi-final/msibi-runs/angles-harmonic-bonds-6.5kT/potentials/angle_pot.K-E-K.txt')

_all = hoomd.group.all()
hoomd.md.integrate.mode_standard(0.0003)
integrator_kwargs = {'tau': 0.01, 'kT': 6.5}
integrator = hoomd.md.integrate.nvt(group=_all, **integrator_kwargs)


hoomd.dump.gsd(
run.py:037  |  hoomd.run(6000000)
** starting run **
Time 00:00:10 | Step 127965 / 6000000 | TPS 12796.4 | ETA 00:07:38
Time 00:00:20 | Step 260625 / 6000000 | TPS 13266 | ETA 00:07:12
Time 00:00:30 | Step 393362 / 6000000 | TPS 13273.6 | ETA 00:07:02
Time 00:00:40 | Step 526169 / 6000000 | TPS 13280.7 | ETA 00:06:52
Time 00:00:50 | Step 658962 / 6000000 | TPS 13279.3 | ETA 00:06:42
Time 00:01:00 | Step 791777 / 6000000 | TPS 13281.5 | ETA 00:06:32
Time 00:01:10 | Step 924497 / 6000000 | TPS 13271.9 | ETA 00:06:22
Time 00:01:20 | Step 1057323 / 6000000 | TPS 13282.5 | ETA 00:06:12
Time 00:01:30 | Step 1189924 / 6000000 | TPS 13260.1 | ETA 00:06:02
Time 00:01:40 | Step 1322657 / 6000000 | TPS 13273.2 | ETA 00:05:52
Time 00:01:50 | Step 1455474 / 6000000 | TPS 13281.6 | ETA 00:05:42
Time 00:02:00 | Step 1588161 / 6000000 | TPS 13268.7 | ETA 00:05:32
Time 00:02:10 | Step 1721034 / 6000000 | TPS 13287.2 | ETA 00:05:22
Time 00:02:20 | Step 1854053 / 6000000 | TPS 13301.8 | ETA 00:05:11
Time 00:02:30 | Step 1987129 / 6000000 | TPS 13307.5 | ETA 00:05:01
Time 00:02:40 | Step 2120124 / 6000000 | TPS 13299.5 | ETA 00:04:51
Time 00:02:50 | Step 2253162 / 6000000 | TPS 13303.7 | ETA 00:04:41
Time 00:03:00 | Step 2385913 / 6000000 | TPS 13275.1 | ETA 00:04:32
Time 00:03:10 | Step 2518724 / 6000000 | TPS 13281 | ETA 00:04:22
Time 00:03:20 | Step 2651897 / 6000000 | TPS 13317.3 | ETA 00:04:11
Time 00:03:30 | Step 2784909 / 6000000 | TPS 13301.2 | ETA 00:04:01
Time 00:03:40 | Step 2918083 / 6000000 | TPS 13317.3 | ETA 00:03:51
Time 00:03:50 | Step 3051232 / 6000000 | TPS 13314.8 | ETA 00:03:41
Time 00:04:00 | Step 3184353 / 6000000 | TPS 13312.1 | ETA 00:03:31
Time 00:04:10 | Step 3317022 / 6000000 | TPS 13266.8 | ETA 00:03:22
Time 00:04:20 | Step 3449715 / 6000000 | TPS 13269.3 | ETA 00:03:12
Time 00:04:30 | Step 3582374 / 6000000 | TPS 13265.9 | ETA 00:03:02
Time 00:04:40 | Step 3714934 / 6000000 | TPS 13255.9 | ETA 00:02:52
Time 00:04:50 | Step 3847195 / 6000000 | TPS 13226 | ETA 00:02:42
Time 00:05:00 | Step 3980106 / 6000000 | TPS 13291.1 | ETA 00:02:31
Time 00:05:10 | Step 4112808 / 6000000 | TPS 13270.2 | ETA 00:02:22
Time 00:05:20 | Step 4245184 / 6000000 | TPS 13237.6 | ETA 00:02:12
Time 00:05:30 | Step 4377561 / 6000000 | TPS 13237.6 | ETA 00:02:02
Time 00:05:40 | Step 4510316 / 6000000 | TPS 13275.5 | ETA 00:01:52
Time 00:05:50 | Step 4643018 / 6000000 | TPS 13270.1 | ETA 00:01:42
Time 00:06:00 | Step 4775729 / 6000000 | TPS 13271 | ETA 00:01:32
Time 00:06:10 | Step 4908440 / 6000000 | TPS 13271.1 | ETA 00:01:22
Time 00:06:20 | Step 5041435 / 6000000 | TPS 13299.5 | ETA 00:01:12
Time 00:06:30 | Step 5174132 / 6000000 | TPS 13269.7 | ETA 00:01:02
Time 00:06:40 | Step 5306801 / 6000000 | TPS 13266.9 | ETA 00:00:52
Time 00:06:50 | Step 5439659 / 6000000 | TPS 13285.7 | ETA 00:00:42
Time 00:07:00 | Step 5572738 / 6000000 | TPS 13307.9 | ETA 00:00:32
Time 00:07:10 | Step 5705650 / 6000000 | TPS 13291.2 | ETA 00:00:22
Time 00:07:20 | Step 5838198 / 6000000 | TPS 13254.7 | ETA 00:00:12
Time 00:07:30 | Step 5970840 / 6000000 | TPS 13264.1 | ETA 00:00:02
Time 00:07:32 | Step 6000000 / 6000000 | TPS 13265.7 | ETA 00:00:00
Average TPS: 13268.5
---------
-- Neighborlist stats:
20104 normal updates / 20000 forced updates / 0 dangerous updates
n_neigh_min: 0 / n_neigh_max: 0 / n_neigh_avg: 0
shortest rebuild period: 99
** run complete **
