HOOMD-blue 2.9.6 CUDA (10.2) DOUBLE HPMC_MIXED TBB SSE SSE2 SSE3 
Compiled: 03/17/2021
Copyright (c) 2009-2019 The Regents of the University of Michigan.
-----
You are using HOOMD-blue. Please cite the following:
* J A Anderson, J Glaser, and S C Glotzer. "HOOMD-blue: A Python package for
  high-performance molecular dynamics and hard particle Monte Carlo
  simulations", Computational Materials Science 173 (2020) 109363
-----
HOOMD-blue is running on the following GPU(s):
 [0]  Tesla P100-PCIE-12GB  56 SM_6.0 @ 1.33 GHz, 12198 MiB DRAM, MNG
run.py:007  |  system = read_gsd("/home/erjank_project/chrisjones/pekk-msibi-final/learning-runs/single-chains/workspace/406ebab1bb7367f5094f47bcde8b8e44/components.gsd", frame=-1, time_step=0)
notice(2): Group "all" created containing 60 particles
run.py:009  |  nl = hoomd.md.nlist.tree()
-----
You are using tree neighbor lists. Please cite the following:
* M P Howard, J A Anderson, A Nikoubashman, S C Glotzer, and A Z
  Panagiotopoulos. "Efficient neighbor list calculation for molecular simulation
  of colloidal systems using graphics processing units", Computer Physics
  Communications 203 (2016) 45--52
* M P Howard, A Statt, F Madutsa, T M Truskett, and A Z Panagiotopoulos.
  "Quantized bounding volume hierarchies for neighbor search in molecular
  simulations on graphics processing units", Computational Materials Science 164
  (2019) 139--146
-----
run.py:010  |  nl.reset_exclusions(exclusions=['1-2', '1-3'])
notice(2): -- Neighborlist exclusion statistics -- :
notice(2): Particles with 2 exclusions             : 2
notice(2): Particles with 3 exclusions             : 2
notice(2): Particles with 4 exclusions             : 56
notice(2): Neighbors included by diameter          : no
notice(2): Neighbors excluded when in the same body: no
run.py:012  |  lj = hoomd.md.pair.lj(nlist=nl, r_cut=0)
run.py:013  |  lj.pair_coeff.set('E', 'E', epsilon=0, sigma=1, r_cut=0)
run.py:014  |  lj.pair_coeff.set('K', 'K', epsilon=0, sigma=1, r_cut=0)
run.py:015  |  lj.pair_coeff.set('E', 'K', epsilon=0, sigma=1, r_cut=0)
run.py:016  |  harmonic_bond = hoomd.md.bond.harmonic()
run.py:017  |  harmonic_bond.bond_coeff.set('E-K', k=850, r0=1.47)
run.py:018  |  harmonic_bond.bond_coeff.set('K-K', k=1450, r0=1.53)
run.py:019  |  atable = hoomd.md.angle.table(width=200)
run.py:020  |  atable.set_from_file('E-K-K', '/home/erjank_project/chrisjones/pekk-msibi-final/msibi-runs/angles-harmonic-bonds-6.5kT/potentials/angle_pot.E-K-K.txt')
run.py:021  |  atable.set_from_file('K-E-K', '/home/erjank_project/chrisjones/pekk-msibi-final/msibi-runs/angles-harmonic-bonds-6.5kT/potentials/angle_pot.K-E-K.txt')
run.py:023  |  _all = hoomd.group.all()
run.py:024  |  hoomd.md.integrate.mode_standard(0.0003)
run.py:026  |  integrator = hoomd.md.integrate.nvt(group=_all, **integrator_kwargs)
run.py:000  |  
import hoomd
import hoomd.md
from hoomd.init import read_gsd

hoomd.context.initialize("")
system = read_gsd("/home/erjank_project/chrisjones/pekk-msibi-final/learning-runs/single-chains/workspace/406ebab1bb7367f5094f47bcde8b8e44/components.gsd", frame=-1, time_step=0)

nl = hoomd.md.nlist.tree()
nl.reset_exclusions(exclusions=['1-2', '1-3'])

lj = hoomd.md.pair.lj(nlist=nl, r_cut=0)
lj.pair_coeff.set('E', 'E', epsilon=0, sigma=1, r_cut=0)
lj.pair_coeff.set('K', 'K', epsilon=0, sigma=1, r_cut=0)
lj.pair_coeff.set('E', 'K', epsilon=0, sigma=1, r_cut=0)
harmonic_bond = hoomd.md.bond.harmonic()
harmonic_bond.bond_coeff.set('E-K', k=850, r0=1.47)
harmonic_bond.bond_coeff.set('K-K', k=1450, r0=1.53)
atable = hoomd.md.angle.table(width=200)
atable.set_from_file('E-K-K', '/home/erjank_project/chrisjones/pekk-msibi-final/msibi-runs/angles-harmonic-bonds-6.5kT/potentials/angle_pot.E-K-K.txt')
atable.set_from_file('K-E-K', '/home/erjank_project/chrisjones/pekk-msibi-final/msibi-runs/angles-harmonic-bonds-6.5kT/potentials/angle_pot.K-E-K.txt')

_all = hoomd.group.all()
hoomd.md.integrate.mode_standard(0.0003)
integrator_kwargs = {'tau': 0.01, 'kT': 6.5}
integrator = hoomd.md.integrate.nvt(group=_all, **integrator_kwargs)


hoomd.dump.gsd(
run.py:037  |  hoomd.run(6000000)
** starting run **
Time 00:00:10 | Step 127672 / 6000000 | TPS 12767.2 | ETA 00:07:39
Time 00:00:20 | Step 260131 / 6000000 | TPS 13245.8 | ETA 00:07:13
Time 00:00:30 | Step 392106 / 6000000 | TPS 13197.5 | ETA 00:07:04
Time 00:00:40 | Step 523758 / 6000000 | TPS 13165.1 | ETA 00:06:55
Time 00:00:50 | Step 655906 / 6000000 | TPS 13214.8 | ETA 00:06:44
Time 00:01:00 | Step 788110 / 6000000 | TPS 13220.3 | ETA 00:06:34
Time 00:01:10 | Step 920290 / 6000000 | TPS 13218 | ETA 00:06:24
Time 00:01:20 | Step 1052654 / 6000000 | TPS 13236.3 | ETA 00:06:13
Time 00:01:30 | Step 1184704 / 6000000 | TPS 13205 | ETA 00:06:04
Time 00:01:40 | Step 1316401 / 6000000 | TPS 13169.4 | ETA 00:05:55
Time 00:01:50 | Step 1448627 / 6000000 | TPS 13222.6 | ETA 00:05:44
Time 00:02:00 | Step 1580880 / 6000000 | TPS 13225.2 | ETA 00:05:34
Time 00:02:10 | Step 1712898 / 6000000 | TPS 13201.8 | ETA 00:05:24
Time 00:02:20 | Step 1845426 / 6000000 | TPS 13252.8 | ETA 00:05:13
Time 00:02:30 | Step 1977623 / 6000000 | TPS 13219.7 | ETA 00:05:04
Time 00:02:40 | Step 2109632 / 6000000 | TPS 13200.8 | ETA 00:04:54
Time 00:02:50 | Step 2242174 / 6000000 | TPS 13254.1 | ETA 00:04:43
Time 00:03:00 | Step 2374520 / 6000000 | TPS 13234.6 | ETA 00:04:33
Time 00:03:10 | Step 2506921 / 6000000 | TPS 13240 | ETA 00:04:23
Time 00:03:20 | Step 2639510 / 6000000 | TPS 13258.8 | ETA 00:04:13
Time 00:03:30 | Step 2772032 / 6000000 | TPS 13252.1 | ETA 00:04:03
Time 00:03:40 | Step 2904327 / 6000000 | TPS 13229.5 | ETA 00:03:53
Time 00:03:50 | Step 3036429 / 6000000 | TPS 13210.2 | ETA 00:03:44
Time 00:04:00 | Step 3168301 / 6000000 | TPS 13186.7 | ETA 00:03:34
Time 00:04:10 | Step 3300180 / 6000000 | TPS 13187.9 | ETA 00:03:24
Time 00:04:20 | Step 3432398 / 6000000 | TPS 13221.7 | ETA 00:03:14
Time 00:04:30 | Step 3564791 / 6000000 | TPS 13239.2 | ETA 00:03:03
Time 00:04:40 | Step 3697217 / 6000000 | TPS 13242.5 | ETA 00:02:53
Time 00:04:50 | Step 3829708 / 6000000 | TPS 13249.1 | ETA 00:02:43
Time 00:05:00 | Step 3963116 / 6000000 | TPS 13340.7 | ETA 00:02:32
Time 00:05:10 | Step 4096607 / 6000000 | TPS 13349.1 | ETA 00:02:22
Time 00:05:20 | Step 4229219 / 6000000 | TPS 13261.2 | ETA 00:02:13
Time 00:05:30 | Step 4361612 / 6000000 | TPS 13239.2 | ETA 00:02:03
Time 00:05:40 | Step 4494146 / 6000000 | TPS 13253.3 | ETA 00:01:53
Time 00:05:50 | Step 4626647 / 6000000 | TPS 13250.1 | ETA 00:01:43
Time 00:06:00 | Step 4759493 / 6000000 | TPS 13284.6 | ETA 00:01:33
Time 00:06:10 | Step 4892402 / 6000000 | TPS 13290.8 | ETA 00:01:23
Time 00:06:20 | Step 5024730 / 6000000 | TPS 13232.7 | ETA 00:01:13
Time 00:06:30 | Step 5157248 / 6000000 | TPS 13251.7 | ETA 00:01:03
Time 00:06:40 | Step 5290058 / 6000000 | TPS 13281 | ETA 00:00:53
Time 00:06:50 | Step 5422854 / 6000000 | TPS 13279.6 | ETA 00:00:43
Time 00:07:00 | Step 5555777 / 6000000 | TPS 13292.2 | ETA 00:00:33
Time 00:07:10 | Step 5688447 / 6000000 | TPS 13266.9 | ETA 00:00:23
Time 00:07:20 | Step 5820753 / 6000000 | TPS 13230.6 | ETA 00:00:13
Time 00:07:30 | Step 5953045 / 6000000 | TPS 13229.2 | ETA 00:00:03
Time 00:07:33 | Step 6000000 / 6000000 | TPS 13260 | ETA 00:00:00
Average TPS: 13229.2
---------
-- Neighborlist stats:
20124 normal updates / 20000 forced updates / 0 dangerous updates
n_neigh_min: 0 / n_neigh_max: 0 / n_neigh_avg: 0
shortest rebuild period: 99
** run complete **
