HOOMD-blue 2.9.6 CUDA (10.2) DOUBLE HPMC_MIXED TBB SSE SSE2 SSE3 
Compiled: 03/17/2021
Copyright (c) 2009-2019 The Regents of the University of Michigan.
-----
You are using HOOMD-blue. Please cite the following:
* J A Anderson, J Glaser, and S C Glotzer. "HOOMD-blue: A Python package for
  high-performance molecular dynamics and hard particle Monte Carlo
  simulations", Computational Materials Science 173 (2020) 109363
-----
HOOMD-blue is running on the following GPU(s):
 [0]  Tesla P100-PCIE-12GB  56 SM_6.0 @ 1.33 GHz, 12198 MiB DRAM, MNG
run.py:007  |  system = read_gsd("/home/erjank_project/chrisjones/pekk-msibi-final/learning-runs/single-chains/workspace/406ebab1bb7367f5094f47bcde8b8e44/components.gsd", frame=-1, time_step=0)
notice(2): Group "all" created containing 60 particles
run.py:009  |  nl = hoomd.md.nlist.tree()
-----
You are using tree neighbor lists. Please cite the following:
* M P Howard, J A Anderson, A Nikoubashman, S C Glotzer, and A Z
  Panagiotopoulos. "Efficient neighbor list calculation for molecular simulation
  of colloidal systems using graphics processing units", Computer Physics
  Communications 203 (2016) 45--52
* M P Howard, A Statt, F Madutsa, T M Truskett, and A Z Panagiotopoulos.
  "Quantized bounding volume hierarchies for neighbor search in molecular
  simulations on graphics processing units", Computational Materials Science 164
  (2019) 139--146
-----
run.py:010  |  nl.reset_exclusions(exclusions=['1-2', '1-3'])
notice(2): -- Neighborlist exclusion statistics -- :
notice(2): Particles with 2 exclusions             : 2
notice(2): Particles with 3 exclusions             : 2
notice(2): Particles with 4 exclusions             : 56
notice(2): Neighbors included by diameter          : no
notice(2): Neighbors excluded when in the same body: no
run.py:012  |  lj = hoomd.md.pair.lj(nlist=nl, r_cut=0)
run.py:013  |  lj.pair_coeff.set('E', 'E', epsilon=0, sigma=1, r_cut=0)
run.py:014  |  lj.pair_coeff.set('K', 'K', epsilon=0, sigma=1, r_cut=0)
run.py:015  |  lj.pair_coeff.set('E', 'K', epsilon=0, sigma=1, r_cut=0)
run.py:016  |  harmonic_bond = hoomd.md.bond.harmonic()
run.py:017  |  harmonic_bond.bond_coeff.set('E-K', k=850, r0=1.47)
run.py:018  |  harmonic_bond.bond_coeff.set('K-K', k=1450, r0=1.53)
run.py:019  |  atable = hoomd.md.angle.table(width=200)
run.py:020  |  atable.set_from_file('E-K-K', '/home/erjank_project/chrisjones/pekk-msibi-final/msibi-runs/angles-harmonic-bonds-6.5kT/potentials/angle_pot.E-K-K.txt')
run.py:021  |  atable.set_from_file('K-E-K', '/home/erjank_project/chrisjones/pekk-msibi-final/msibi-runs/angles-harmonic-bonds-6.5kT/potentials/angle_pot.K-E-K.txt')
run.py:023  |  _all = hoomd.group.all()
run.py:024  |  hoomd.md.integrate.mode_standard(0.0003)
run.py:026  |  integrator = hoomd.md.integrate.nvt(group=_all, **integrator_kwargs)
run.py:000  |  
import hoomd
import hoomd.md
from hoomd.init import read_gsd

hoomd.context.initialize("")
system = read_gsd("/home/erjank_project/chrisjones/pekk-msibi-final/learning-runs/single-chains/workspace/406ebab1bb7367f5094f47bcde8b8e44/components.gsd", frame=-1, time_step=0)

nl = hoomd.md.nlist.tree()
nl.reset_exclusions(exclusions=['1-2', '1-3'])

lj = hoomd.md.pair.lj(nlist=nl, r_cut=0)
lj.pair_coeff.set('E', 'E', epsilon=0, sigma=1, r_cut=0)
lj.pair_coeff.set('K', 'K', epsilon=0, sigma=1, r_cut=0)
lj.pair_coeff.set('E', 'K', epsilon=0, sigma=1, r_cut=0)
harmonic_bond = hoomd.md.bond.harmonic()
harmonic_bond.bond_coeff.set('E-K', k=850, r0=1.47)
harmonic_bond.bond_coeff.set('K-K', k=1450, r0=1.53)
atable = hoomd.md.angle.table(width=200)
atable.set_from_file('E-K-K', '/home/erjank_project/chrisjones/pekk-msibi-final/msibi-runs/angles-harmonic-bonds-6.5kT/potentials/angle_pot.E-K-K.txt')
atable.set_from_file('K-E-K', '/home/erjank_project/chrisjones/pekk-msibi-final/msibi-runs/angles-harmonic-bonds-6.5kT/potentials/angle_pot.K-E-K.txt')

_all = hoomd.group.all()
hoomd.md.integrate.mode_standard(0.0003)
integrator_kwargs = {'tau': 0.01, 'kT': 6.5}
integrator = hoomd.md.integrate.nvt(group=_all, **integrator_kwargs)


hoomd.dump.gsd(
run.py:037  |  hoomd.run(6000000)
** starting run **
Time 00:00:10 | Step 130411 / 6000000 | TPS 13041 | ETA 00:07:30
Time 00:00:20 | Step 265719 / 6000000 | TPS 13530.7 | ETA 00:07:03
Time 00:00:30 | Step 401160 / 6000000 | TPS 13544 | ETA 00:06:53
Time 00:00:40 | Step 536678 / 6000000 | TPS 13551.8 | ETA 00:06:43
Time 00:00:50 | Step 672140 / 6000000 | TPS 13546.2 | ETA 00:06:33
Time 00:01:00 | Step 807635 / 6000000 | TPS 13549.5 | ETA 00:06:23
Time 00:01:10 | Step 943144 / 6000000 | TPS 13550.8 | ETA 00:06:13
Time 00:01:20 | Step 1078536 / 6000000 | TPS 13539.2 | ETA 00:06:03
Time 00:01:30 | Step 1213648 / 6000000 | TPS 13511.1 | ETA 00:05:54
Time 00:01:40 | Step 1349101 / 6000000 | TPS 13545.2 | ETA 00:05:43
Time 00:01:50 | Step 1484568 / 6000000 | TPS 13546.7 | ETA 00:05:33
Time 00:02:00 | Step 1619923 / 6000000 | TPS 13535.5 | ETA 00:05:23
Time 00:02:10 | Step 1755214 / 6000000 | TPS 13529 | ETA 00:05:13
Time 00:02:20 | Step 1890689 / 6000000 | TPS 13547.5 | ETA 00:05:03
Time 00:02:30 | Step 2026046 / 6000000 | TPS 13535.6 | ETA 00:04:53
Time 00:02:40 | Step 2161477 / 6000000 | TPS 13543 | ETA 00:04:43
Time 00:02:50 | Step 2296912 / 6000000 | TPS 13543.5 | ETA 00:04:33
Time 00:03:00 | Step 2432363 / 6000000 | TPS 13545.1 | ETA 00:04:23
Time 00:03:10 | Step 2567850 / 6000000 | TPS 13548.6 | ETA 00:04:13
Time 00:03:20 | Step 2703224 / 6000000 | TPS 13537.4 | ETA 00:04:03
Time 00:03:30 | Step 2838761 / 6000000 | TPS 13553.6 | ETA 00:03:53
Time 00:03:40 | Step 2974415 / 6000000 | TPS 13565.4 | ETA 00:03:43
Time 00:03:50 | Step 3109974 / 6000000 | TPS 13555.8 | ETA 00:03:33
Time 00:04:00 | Step 3245651 / 6000000 | TPS 13567.7 | ETA 00:03:23
Time 00:04:10 | Step 3381267 / 6000000 | TPS 13561.6 | ETA 00:03:13
Time 00:04:20 | Step 3516727 / 6000000 | TPS 13545.9 | ETA 00:03:03
Time 00:04:30 | Step 3651901 / 6000000 | TPS 13516.9 | ETA 00:02:53
Time 00:04:40 | Step 3787221 / 6000000 | TPS 13532 | ETA 00:02:43
Time 00:04:50 | Step 3922652 / 6000000 | TPS 13543.1 | ETA 00:02:33
Time 00:05:00 | Step 4058175 / 6000000 | TPS 13552.2 | ETA 00:02:23
Time 00:05:10 | Step 4193614 / 6000000 | TPS 13543.9 | ETA 00:02:13
Time 00:05:20 | Step 4329092 / 6000000 | TPS 13547.7 | ETA 00:02:03
Time 00:05:30 | Step 4464460 / 6000000 | TPS 13536.7 | ETA 00:01:53
Time 00:05:40 | Step 4599901 / 6000000 | TPS 13544.1 | ETA 00:01:43
Time 00:05:50 | Step 4735117 / 6000000 | TPS 13521.5 | ETA 00:01:33
Time 00:06:00 | Step 4870529 / 6000000 | TPS 13541.1 | ETA 00:01:23
Time 00:06:10 | Step 5005901 / 6000000 | TPS 13537.2 | ETA 00:01:13
Time 00:06:20 | Step 5141149 / 6000000 | TPS 13524.7 | ETA 00:01:03
Time 00:06:30 | Step 5276497 / 6000000 | TPS 13534.7 | ETA 00:00:53
Time 00:06:40 | Step 5411710 / 6000000 | TPS 13521.3 | ETA 00:00:43
Time 00:06:50 | Step 5546957 / 6000000 | TPS 13524.6 | ETA 00:00:33
Time 00:07:00 | Step 5682299 / 6000000 | TPS 13534.1 | ETA 00:00:23
Time 00:07:10 | Step 5817643 / 6000000 | TPS 13534.4 | ETA 00:00:13
Time 00:07:20 | Step 5953483 / 6000000 | TPS 13583.9 | ETA 00:00:03
Time 00:07:23 | Step 6000000 / 6000000 | TPS 13595.7 | ETA 00:00:00
Average TPS: 13531.1
---------
-- Neighborlist stats:
20091 normal updates / 20000 forced updates / 0 dangerous updates
n_neigh_min: 0 / n_neigh_max: 0 / n_neigh_avg: 0
shortest rebuild period: 99
** run complete **
