HOOMD-blue 2.9.6 CUDA (10.2) DOUBLE HPMC_MIXED TBB SSE SSE2 SSE3 
Compiled: 03/17/2021
Copyright (c) 2009-2019 The Regents of the University of Michigan.
-----
You are using HOOMD-blue. Please cite the following:
* J A Anderson, J Glaser, and S C Glotzer. "HOOMD-blue: A Python package for
  high-performance molecular dynamics and hard particle Monte Carlo
  simulations", Computational Materials Science 173 (2020) 109363
-----
HOOMD-blue is running on the following GPU(s):
 [0]  Tesla P100-PCIE-12GB  56 SM_6.0 @ 1.33 GHz, 12198 MiB DRAM, MNG
run.py:007  |  system = read_gsd("/home/erjank_project/chrisjones/pekk-msibi-final/learning-runs/single-chains/workspace/406ebab1bb7367f5094f47bcde8b8e44/components.gsd", frame=-1, time_step=0)
notice(2): Group "all" created containing 60 particles
run.py:009  |  nl = hoomd.md.nlist.tree()
-----
You are using tree neighbor lists. Please cite the following:
* M P Howard, J A Anderson, A Nikoubashman, S C Glotzer, and A Z
  Panagiotopoulos. "Efficient neighbor list calculation for molecular simulation
  of colloidal systems using graphics processing units", Computer Physics
  Communications 203 (2016) 45--52
* M P Howard, A Statt, F Madutsa, T M Truskett, and A Z Panagiotopoulos.
  "Quantized bounding volume hierarchies for neighbor search in molecular
  simulations on graphics processing units", Computational Materials Science 164
  (2019) 139--146
-----
run.py:010  |  nl.reset_exclusions(exclusions=['1-2', '1-3'])
notice(2): -- Neighborlist exclusion statistics -- :
notice(2): Particles with 2 exclusions             : 2
notice(2): Particles with 3 exclusions             : 2
notice(2): Particles with 4 exclusions             : 56
notice(2): Neighbors included by diameter          : no
notice(2): Neighbors excluded when in the same body: no
run.py:012  |  lj = hoomd.md.pair.lj(nlist=nl, r_cut=0)
run.py:013  |  lj.pair_coeff.set('E', 'E', epsilon=0, sigma=1, r_cut=0)
run.py:014  |  lj.pair_coeff.set('K', 'K', epsilon=0, sigma=1, r_cut=0)
run.py:015  |  lj.pair_coeff.set('E', 'K', epsilon=0, sigma=1, r_cut=0)
run.py:016  |  harmonic_bond = hoomd.md.bond.harmonic()
run.py:017  |  harmonic_bond.bond_coeff.set('E-K', k=850, r0=1.47)
run.py:018  |  harmonic_bond.bond_coeff.set('K-K', k=1450, r0=1.53)
run.py:019  |  atable = hoomd.md.angle.table(width=200)
run.py:020  |  atable.set_from_file('E-K-K', '/home/erjank_project/chrisjones/pekk-msibi-final/msibi-runs/angles-harmonic-bonds-6.5kT/potentials/angle_pot.E-K-K.txt')
run.py:021  |  atable.set_from_file('K-E-K', '/home/erjank_project/chrisjones/pekk-msibi-final/msibi-runs/angles-harmonic-bonds-6.5kT/potentials/angle_pot.K-E-K.txt')
run.py:023  |  _all = hoomd.group.all()
run.py:024  |  hoomd.md.integrate.mode_standard(0.0003)
run.py:026  |  integrator = hoomd.md.integrate.nvt(group=_all, **integrator_kwargs)
run.py:000  |  
import hoomd
import hoomd.md
from hoomd.init import read_gsd

hoomd.context.initialize("")
system = read_gsd("/home/erjank_project/chrisjones/pekk-msibi-final/learning-runs/single-chains/workspace/406ebab1bb7367f5094f47bcde8b8e44/components.gsd", frame=-1, time_step=0)

nl = hoomd.md.nlist.tree()
nl.reset_exclusions(exclusions=['1-2', '1-3'])

lj = hoomd.md.pair.lj(nlist=nl, r_cut=0)
lj.pair_coeff.set('E', 'E', epsilon=0, sigma=1, r_cut=0)
lj.pair_coeff.set('K', 'K', epsilon=0, sigma=1, r_cut=0)
lj.pair_coeff.set('E', 'K', epsilon=0, sigma=1, r_cut=0)
harmonic_bond = hoomd.md.bond.harmonic()
harmonic_bond.bond_coeff.set('E-K', k=850, r0=1.47)
harmonic_bond.bond_coeff.set('K-K', k=1450, r0=1.53)
atable = hoomd.md.angle.table(width=200)
atable.set_from_file('E-K-K', '/home/erjank_project/chrisjones/pekk-msibi-final/msibi-runs/angles-harmonic-bonds-6.5kT/potentials/angle_pot.E-K-K.txt')
atable.set_from_file('K-E-K', '/home/erjank_project/chrisjones/pekk-msibi-final/msibi-runs/angles-harmonic-bonds-6.5kT/potentials/angle_pot.K-E-K.txt')

_all = hoomd.group.all()
hoomd.md.integrate.mode_standard(0.0003)
integrator_kwargs = {'tau': 0.01, 'kT': 6.5}
integrator = hoomd.md.integrate.nvt(group=_all, **integrator_kwargs)


hoomd.dump.gsd(
run.py:037  |  hoomd.run(6000000)
** starting run **
Time 00:00:10 | Step 129361 / 6000000 | TPS 12936 | ETA 00:07:33
Time 00:00:20 | Step 263707 / 6000000 | TPS 13434.6 | ETA 00:07:06
Time 00:00:30 | Step 398438 / 6000000 | TPS 13473 | ETA 00:06:55
Time 00:00:40 | Step 533401 / 6000000 | TPS 13496.1 | ETA 00:06:45
Time 00:00:50 | Step 668265 / 6000000 | TPS 13486.4 | ETA 00:06:35
Time 00:01:00 | Step 802908 / 6000000 | TPS 13464.3 | ETA 00:06:25
Time 00:01:10 | Step 937784 / 6000000 | TPS 13487.5 | ETA 00:06:15
Time 00:01:20 | Step 1072610 / 6000000 | TPS 13482.5 | ETA 00:06:05
Time 00:01:30 | Step 1207418 / 6000000 | TPS 13480.8 | ETA 00:05:55
Time 00:01:40 | Step 1342247 / 6000000 | TPS 13482.8 | ETA 00:05:45
Time 00:01:50 | Step 1477058 / 6000000 | TPS 13481.1 | ETA 00:05:35
Time 00:02:00 | Step 1611415 / 6000000 | TPS 13435.7 | ETA 00:05:26
Time 00:02:10 | Step 1746183 / 6000000 | TPS 13476.7 | ETA 00:05:15
Time 00:02:20 | Step 1880922 / 6000000 | TPS 13473.9 | ETA 00:05:05
Time 00:02:30 | Step 2015593 / 6000000 | TPS 13467 | ETA 00:04:55
Time 00:02:40 | Step 2150358 / 6000000 | TPS 13476.5 | ETA 00:04:45
Time 00:02:50 | Step 2285093 / 6000000 | TPS 13473.5 | ETA 00:04:35
Time 00:03:00 | Step 2419832 / 6000000 | TPS 13473.8 | ETA 00:04:25
Time 00:03:10 | Step 2554650 / 6000000 | TPS 13481.7 | ETA 00:04:15
Time 00:03:20 | Step 2689371 / 6000000 | TPS 13472.1 | ETA 00:04:05
Time 00:03:30 | Step 2824072 / 6000000 | TPS 13470 | ETA 00:03:55
Time 00:03:40 | Step 2958810 / 6000000 | TPS 13473.8 | ETA 00:03:45
Time 00:03:50 | Step 3093637 / 6000000 | TPS 13482.7 | ETA 00:03:35
Time 00:04:00 | Step 3228118 / 6000000 | TPS 13448 | ETA 00:03:26
Time 00:04:10 | Step 3362865 / 6000000 | TPS 13474.7 | ETA 00:03:15
Time 00:04:20 | Step 3497525 / 6000000 | TPS 13466 | ETA 00:03:05
Time 00:04:30 | Step 3632351 / 6000000 | TPS 13482.5 | ETA 00:02:55
Time 00:04:40 | Step 3767208 / 6000000 | TPS 13485.7 | ETA 00:02:45
Time 00:04:50 | Step 3902123 / 6000000 | TPS 13491.4 | ETA 00:02:35
Time 00:05:00 | Step 4036914 / 6000000 | TPS 13479 | ETA 00:02:25
Time 00:05:10 | Step 4171708 / 6000000 | TPS 13479.3 | ETA 00:02:15
Time 00:05:20 | Step 4306439 / 6000000 | TPS 13473.1 | ETA 00:02:05
Time 00:05:30 | Step 4441262 / 6000000 | TPS 13482.2 | ETA 00:01:55
Time 00:05:40 | Step 4575937 / 6000000 | TPS 13467.5 | ETA 00:01:45
Time 00:05:50 | Step 4710527 / 6000000 | TPS 13459 | ETA 00:01:35
Time 00:06:00 | Step 4845131 / 6000000 | TPS 13460.3 | ETA 00:01:25
Time 00:06:10 | Step 4979739 / 6000000 | TPS 13460.7 | ETA 00:01:15
Time 00:06:20 | Step 5114393 / 6000000 | TPS 13465.3 | ETA 00:01:05
Time 00:06:30 | Step 5249307 / 6000000 | TPS 13491.4 | ETA 00:00:55
Time 00:06:40 | Step 5384113 / 6000000 | TPS 13480.5 | ETA 00:00:45
Time 00:06:50 | Step 5518842 / 6000000 | TPS 13472.9 | ETA 00:00:35
Time 00:07:00 | Step 5653328 / 6000000 | TPS 13448.6 | ETA 00:00:25
Time 00:07:10 | Step 5787910 / 6000000 | TPS 13458.2 | ETA 00:00:15
Time 00:07:20 | Step 5922594 / 6000000 | TPS 13468.3 | ETA 00:00:05
Time 00:07:25 | Step 6000000 / 6000000 | TPS 13478.6 | ETA 00:00:00
Average TPS: 13460.6
---------
-- Neighborlist stats:
20116 normal updates / 20000 forced updates / 0 dangerous updates
n_neigh_min: 0 / n_neigh_max: 0 / n_neigh_avg: 0
shortest rebuild period: 99
** run complete **
