HOOMD-blue 2.9.6 CUDA (10.2) DOUBLE HPMC_MIXED TBB SSE SSE2 SSE3 
Compiled: 03/17/2021
Copyright (c) 2009-2019 The Regents of the University of Michigan.
-----
You are using HOOMD-blue. Please cite the following:
* J A Anderson, J Glaser, and S C Glotzer. "HOOMD-blue: A Python package for
  high-performance molecular dynamics and hard particle Monte Carlo
  simulations", Computational Materials Science 173 (2020) 109363
-----
HOOMD-blue is running on the following GPU(s):
 [0]  Tesla P100-PCIE-12GB  56 SM_6.0 @ 1.33 GHz, 12198 MiB DRAM, MNG
run.py:007  |  system = read_gsd("/home/erjank_project/chrisjones/pekk-msibi-final/learning-runs/single-chains/workspace/406ebab1bb7367f5094f47bcde8b8e44/components.gsd", frame=-1, time_step=0)
notice(2): Group "all" created containing 60 particles
run.py:009  |  nl = hoomd.md.nlist.tree()
-----
You are using tree neighbor lists. Please cite the following:
* M P Howard, J A Anderson, A Nikoubashman, S C Glotzer, and A Z
  Panagiotopoulos. "Efficient neighbor list calculation for molecular simulation
  of colloidal systems using graphics processing units", Computer Physics
  Communications 203 (2016) 45--52
* M P Howard, A Statt, F Madutsa, T M Truskett, and A Z Panagiotopoulos.
  "Quantized bounding volume hierarchies for neighbor search in molecular
  simulations on graphics processing units", Computational Materials Science 164
  (2019) 139--146
-----
run.py:010  |  nl.reset_exclusions(exclusions=['1-2', '1-3'])
notice(2): -- Neighborlist exclusion statistics -- :
notice(2): Particles with 2 exclusions             : 2
notice(2): Particles with 3 exclusions             : 2
notice(2): Particles with 4 exclusions             : 56
notice(2): Neighbors included by diameter          : no
notice(2): Neighbors excluded when in the same body: no
run.py:012  |  lj = hoomd.md.pair.lj(nlist=nl, r_cut=0)
run.py:013  |  lj.pair_coeff.set('E', 'E', epsilon=0, sigma=1, r_cut=0)
run.py:014  |  lj.pair_coeff.set('K', 'K', epsilon=0, sigma=1, r_cut=0)
run.py:015  |  lj.pair_coeff.set('E', 'K', epsilon=0, sigma=1, r_cut=0)
run.py:016  |  harmonic_bond = hoomd.md.bond.harmonic()
run.py:017  |  harmonic_bond.bond_coeff.set('E-K', k=850, r0=1.47)
run.py:018  |  harmonic_bond.bond_coeff.set('K-K', k=1450, r0=1.53)
run.py:019  |  atable = hoomd.md.angle.table(width=200)
run.py:020  |  atable.set_from_file('E-K-K', '/home/erjank_project/chrisjones/pekk-msibi-final/msibi-runs/angles-harmonic-bonds-6.5kT/potentials/angle_pot.E-K-K.txt')
run.py:021  |  atable.set_from_file('K-E-K', '/home/erjank_project/chrisjones/pekk-msibi-final/msibi-runs/angles-harmonic-bonds-6.5kT/potentials/angle_pot.K-E-K.txt')
run.py:023  |  _all = hoomd.group.all()
run.py:024  |  hoomd.md.integrate.mode_standard(0.0003)
run.py:026  |  integrator = hoomd.md.integrate.nvt(group=_all, **integrator_kwargs)
run.py:000  |  
import hoomd
import hoomd.md
from hoomd.init import read_gsd

hoomd.context.initialize("")
system = read_gsd("/home/erjank_project/chrisjones/pekk-msibi-final/learning-runs/single-chains/workspace/406ebab1bb7367f5094f47bcde8b8e44/components.gsd", frame=-1, time_step=0)

nl = hoomd.md.nlist.tree()
nl.reset_exclusions(exclusions=['1-2', '1-3'])

lj = hoomd.md.pair.lj(nlist=nl, r_cut=0)
lj.pair_coeff.set('E', 'E', epsilon=0, sigma=1, r_cut=0)
lj.pair_coeff.set('K', 'K', epsilon=0, sigma=1, r_cut=0)
lj.pair_coeff.set('E', 'K', epsilon=0, sigma=1, r_cut=0)
harmonic_bond = hoomd.md.bond.harmonic()
harmonic_bond.bond_coeff.set('E-K', k=850, r0=1.47)
harmonic_bond.bond_coeff.set('K-K', k=1450, r0=1.53)
atable = hoomd.md.angle.table(width=200)
atable.set_from_file('E-K-K', '/home/erjank_project/chrisjones/pekk-msibi-final/msibi-runs/angles-harmonic-bonds-6.5kT/potentials/angle_pot.E-K-K.txt')
atable.set_from_file('K-E-K', '/home/erjank_project/chrisjones/pekk-msibi-final/msibi-runs/angles-harmonic-bonds-6.5kT/potentials/angle_pot.K-E-K.txt')

_all = hoomd.group.all()
hoomd.md.integrate.mode_standard(0.0003)
integrator_kwargs = {'tau': 0.01, 'kT': 6.5}
integrator = hoomd.md.integrate.nvt(group=_all, **integrator_kwargs)


hoomd.dump.gsd(
run.py:037  |  hoomd.run(6000000)
** starting run **
Time 00:00:10 | Step 128572 / 6000000 | TPS 12857.2 | ETA 00:07:36
Time 00:00:20 | Step 261901 / 6000000 | TPS 13332.5 | ETA 00:07:10
Time 00:00:30 | Step 395075 / 6000000 | TPS 13317.3 | ETA 00:07:00
Time 00:00:40 | Step 528483 / 6000000 | TPS 13340.7 | ETA 00:06:50
Time 00:00:50 | Step 661917 / 6000000 | TPS 13343.4 | ETA 00:06:40
Time 00:01:00 | Step 795403 / 6000000 | TPS 13348.5 | ETA 00:06:29
Time 00:01:10 | Step 928894 / 6000000 | TPS 13349 | ETA 00:06:19
Time 00:01:20 | Step 1062483 / 6000000 | TPS 13358.9 | ETA 00:06:09
Time 00:01:30 | Step 1195797 / 6000000 | TPS 13331.3 | ETA 00:06:00
Time 00:01:40 | Step 1329309 / 6000000 | TPS 13351.1 | ETA 00:05:49
Time 00:01:50 | Step 1462951 / 6000000 | TPS 13364.1 | ETA 00:05:39
Time 00:02:00 | Step 1596603 / 6000000 | TPS 13365.1 | ETA 00:05:29
Time 00:02:10 | Step 1729938 / 6000000 | TPS 13333.4 | ETA 00:05:20
Time 00:02:20 | Step 1863344 / 6000000 | TPS 13340.5 | ETA 00:05:10
Time 00:02:30 | Step 1996920 / 6000000 | TPS 13357.5 | ETA 00:04:59
Time 00:02:40 | Step 2130425 / 6000000 | TPS 13350.5 | ETA 00:04:49
Time 00:02:50 | Step 2263985 / 6000000 | TPS 13356 | ETA 00:04:39
Time 00:03:00 | Step 2397581 / 6000000 | TPS 13359.6 | ETA 00:04:29
Time 00:03:10 | Step 2531141 / 6000000 | TPS 13355.9 | ETA 00:04:19
Time 00:03:20 | Step 2664676 / 6000000 | TPS 13353.5 | ETA 00:04:09
Time 00:03:30 | Step 2798188 / 6000000 | TPS 13351.1 | ETA 00:03:59
Time 00:03:40 | Step 2931636 / 6000000 | TPS 13344.8 | ETA 00:03:49
Time 00:03:50 | Step 3065037 / 6000000 | TPS 13340.1 | ETA 00:03:40
Time 00:04:00 | Step 3198720 / 6000000 | TPS 13368.2 | ETA 00:03:29
Time 00:04:10 | Step 3332013 / 6000000 | TPS 13329.3 | ETA 00:03:20
Time 00:04:20 | Step 3465510 / 6000000 | TPS 13349.7 | ETA 00:03:09
Time 00:04:30 | Step 3598999 / 6000000 | TPS 13348.9 | ETA 00:02:59
Time 00:04:40 | Step 3732575 / 6000000 | TPS 13357.6 | ETA 00:02:49
Time 00:04:50 | Step 3865986 / 6000000 | TPS 13341 | ETA 00:02:39
Time 00:05:00 | Step 3999529 / 6000000 | TPS 13354.2 | ETA 00:02:29
Time 00:05:10 | Step 4132928 / 6000000 | TPS 13339.9 | ETA 00:02:19
Time 00:05:20 | Step 4266364 / 6000000 | TPS 13343.6 | ETA 00:02:09
Time 00:05:30 | Step 4399847 / 6000000 | TPS 13348.3 | ETA 00:01:59
Time 00:05:40 | Step 4533310 / 6000000 | TPS 13346.3 | ETA 00:01:49
Time 00:05:50 | Step 4666875 / 6000000 | TPS 13356.5 | ETA 00:01:39
Time 00:06:00 | Step 4800314 / 6000000 | TPS 13343.9 | ETA 00:01:29
Time 00:06:10 | Step 4932803 / 6000000 | TPS 13248.8 | ETA 00:01:20
Time 00:06:20 | Step 5066611 / 6000000 | TPS 13380.8 | ETA 00:01:09
Time 00:06:30 | Step 5200073 / 6000000 | TPS 13346.1 | ETA 00:00:59
Time 00:06:40 | Step 5333222 / 6000000 | TPS 13314.9 | ETA 00:00:50
Time 00:06:50 | Step 5466541 / 6000000 | TPS 13331.9 | ETA 00:00:40
Time 00:07:00 | Step 5599814 / 6000000 | TPS 13327.3 | ETA 00:00:30
Time 00:07:10 | Step 5733561 / 6000000 | TPS 13374.6 | ETA 00:00:19
Time 00:07:20 | Step 5867576 / 6000000 | TPS 13401.5 | ETA 00:00:09
Time 00:07:29 | Step 6000000 / 6000000 | TPS 13419.9 | ETA 00:00:00
Average TPS: 13337.2
---------
-- Neighborlist stats:
20110 normal updates / 20000 forced updates / 0 dangerous updates
n_neigh_min: 0 / n_neigh_max: 0 / n_neigh_avg: 0
shortest rebuild period: 99
** run complete **
