HOOMD-blue 2.9.6 CUDA (10.2) DOUBLE HPMC_MIXED TBB SSE SSE2 SSE3 
Compiled: 03/17/2021
Copyright (c) 2009-2019 The Regents of the University of Michigan.
-----
You are using HOOMD-blue. Please cite the following:
* J A Anderson, J Glaser, and S C Glotzer. "HOOMD-blue: A Python package for
  high-performance molecular dynamics and hard particle Monte Carlo
  simulations", Computational Materials Science 173 (2020) 109363
-----
HOOMD-blue is running on the following GPU(s):
 [0]  Tesla P100-PCIE-12GB  56 SM_6.0 @ 1.33 GHz, 12198 MiB DRAM, MNG
run.py:007  |  system = read_gsd("/home/erjank_project/chrisjones/pekk-msibi-final/learning-runs/single-chains/workspace/406ebab1bb7367f5094f47bcde8b8e44/components.gsd", frame=-1, time_step=0)
notice(2): Group "all" created containing 60 particles
run.py:009  |  nl = hoomd.md.nlist.tree()
-----
You are using tree neighbor lists. Please cite the following:
* M P Howard, J A Anderson, A Nikoubashman, S C Glotzer, and A Z
  Panagiotopoulos. "Efficient neighbor list calculation for molecular simulation
  of colloidal systems using graphics processing units", Computer Physics
  Communications 203 (2016) 45--52
* M P Howard, A Statt, F Madutsa, T M Truskett, and A Z Panagiotopoulos.
  "Quantized bounding volume hierarchies for neighbor search in molecular
  simulations on graphics processing units", Computational Materials Science 164
  (2019) 139--146
-----
run.py:010  |  nl.reset_exclusions(exclusions=['1-2', '1-3'])
notice(2): -- Neighborlist exclusion statistics -- :
notice(2): Particles with 2 exclusions             : 2
notice(2): Particles with 3 exclusions             : 2
notice(2): Particles with 4 exclusions             : 56
notice(2): Neighbors included by diameter          : no
notice(2): Neighbors excluded when in the same body: no
run.py:012  |  lj = hoomd.md.pair.lj(nlist=nl, r_cut=0)
run.py:013  |  lj.pair_coeff.set('E', 'E', epsilon=0, sigma=1, r_cut=0)
run.py:014  |  lj.pair_coeff.set('K', 'K', epsilon=0, sigma=1, r_cut=0)
run.py:015  |  lj.pair_coeff.set('E', 'K', epsilon=0, sigma=1, r_cut=0)
run.py:016  |  harmonic_bond = hoomd.md.bond.harmonic()
run.py:017  |  harmonic_bond.bond_coeff.set('E-K', k=850, r0=1.47)
run.py:018  |  harmonic_bond.bond_coeff.set('K-K', k=1450, r0=1.53)
run.py:019  |  atable = hoomd.md.angle.table(width=200)
run.py:020  |  atable.set_from_file('E-K-K', '/home/erjank_project/chrisjones/pekk-msibi-final/msibi-runs/angles-harmonic-bonds-6.5kT/potentials/angle_pot.E-K-K.txt')
run.py:021  |  atable.set_from_file('K-E-K', '/home/erjank_project/chrisjones/pekk-msibi-final/msibi-runs/angles-harmonic-bonds-6.5kT/potentials/angle_pot.K-E-K.txt')
run.py:023  |  _all = hoomd.group.all()
run.py:024  |  hoomd.md.integrate.mode_standard(0.0003)
run.py:026  |  integrator = hoomd.md.integrate.nvt(group=_all, **integrator_kwargs)
run.py:000  |  
import hoomd
import hoomd.md
from hoomd.init import read_gsd

hoomd.context.initialize("")
system = read_gsd("/home/erjank_project/chrisjones/pekk-msibi-final/learning-runs/single-chains/workspace/406ebab1bb7367f5094f47bcde8b8e44/components.gsd", frame=-1, time_step=0)

nl = hoomd.md.nlist.tree()
nl.reset_exclusions(exclusions=['1-2', '1-3'])

lj = hoomd.md.pair.lj(nlist=nl, r_cut=0)
lj.pair_coeff.set('E', 'E', epsilon=0, sigma=1, r_cut=0)
lj.pair_coeff.set('K', 'K', epsilon=0, sigma=1, r_cut=0)
lj.pair_coeff.set('E', 'K', epsilon=0, sigma=1, r_cut=0)
harmonic_bond = hoomd.md.bond.harmonic()
harmonic_bond.bond_coeff.set('E-K', k=850, r0=1.47)
harmonic_bond.bond_coeff.set('K-K', k=1450, r0=1.53)
atable = hoomd.md.angle.table(width=200)
atable.set_from_file('E-K-K', '/home/erjank_project/chrisjones/pekk-msibi-final/msibi-runs/angles-harmonic-bonds-6.5kT/potentials/angle_pot.E-K-K.txt')
atable.set_from_file('K-E-K', '/home/erjank_project/chrisjones/pekk-msibi-final/msibi-runs/angles-harmonic-bonds-6.5kT/potentials/angle_pot.K-E-K.txt')

_all = hoomd.group.all()
hoomd.md.integrate.mode_standard(0.0003)
integrator_kwargs = {'tau': 0.01, 'kT': 6.5}
integrator = hoomd.md.integrate.nvt(group=_all, **integrator_kwargs)


hoomd.dump.gsd(
run.py:037  |  hoomd.run(6000000)
** starting run **
Time 00:00:10 | Step 128143 / 6000000 | TPS 12814.3 | ETA 00:07:38
Time 00:00:20 | Step 261301 / 6000000 | TPS 13315.5 | ETA 00:07:10
Time 00:00:30 | Step 394444 / 6000000 | TPS 13314.3 | ETA 00:07:01
Time 00:00:40 | Step 527642 / 6000000 | TPS 13319.7 | ETA 00:06:50
Time 00:00:50 | Step 660651 / 6000000 | TPS 13300.9 | ETA 00:06:41
Time 00:01:00 | Step 793784 / 6000000 | TPS 13313.2 | ETA 00:06:31
Time 00:01:10 | Step 926866 / 6000000 | TPS 13308.2 | ETA 00:06:21
Time 00:01:20 | Step 1059737 / 6000000 | TPS 13287 | ETA 00:06:11
Time 00:01:30 | Step 1192725 / 6000000 | TPS 13298.8 | ETA 00:06:01
Time 00:01:40 | Step 1325630 / 6000000 | TPS 13290.4 | ETA 00:05:51
Time 00:01:50 | Step 1458740 / 6000000 | TPS 13311 | ETA 00:05:41
Time 00:02:00 | Step 1592045 / 6000000 | TPS 13330.5 | ETA 00:05:30
Time 00:02:10 | Step 1725217 / 6000000 | TPS 13317.1 | ETA 00:05:20
Time 00:02:20 | Step 1858289 / 6000000 | TPS 13307.2 | ETA 00:05:11
Time 00:02:30 | Step 1991406 / 6000000 | TPS 13311.6 | ETA 00:05:01
Time 00:02:40 | Step 2124586 / 6000000 | TPS 13317.9 | ETA 00:04:50
Time 00:02:50 | Step 2257757 / 6000000 | TPS 13317.1 | ETA 00:04:41
Time 00:03:00 | Step 2390834 / 6000000 | TPS 13307.7 | ETA 00:04:31
Time 00:03:10 | Step 2523905 / 6000000 | TPS 13307.1 | ETA 00:04:21
Time 00:03:20 | Step 2657034 / 6000000 | TPS 13312.8 | ETA 00:04:11
Time 00:03:30 | Step 2790161 / 6000000 | TPS 13312.7 | ETA 00:04:01
Time 00:03:40 | Step 2923094 / 6000000 | TPS 13293.2 | ETA 00:03:51
Time 00:03:50 | Step 3056134 / 6000000 | TPS 13303.9 | ETA 00:03:41
Time 00:04:00 | Step 3189296 / 6000000 | TPS 13316.2 | ETA 00:03:31
Time 00:04:10 | Step 3322187 / 6000000 | TPS 13289 | ETA 00:03:21
Time 00:04:20 | Step 3455172 / 6000000 | TPS 13298.4 | ETA 00:03:11
Time 00:04:30 | Step 3588081 / 6000000 | TPS 13290.8 | ETA 00:03:01
Time 00:04:40 | Step 3720993 / 6000000 | TPS 13291.2 | ETA 00:02:51
Time 00:04:50 | Step 3854076 / 6000000 | TPS 13308.3 | ETA 00:02:41
Time 00:05:00 | Step 3987155 / 6000000 | TPS 13307.8 | ETA 00:02:31
Time 00:05:10 | Step 4120105 / 6000000 | TPS 13295 | ETA 00:02:21
Time 00:05:20 | Step 4253166 / 6000000 | TPS 13306 | ETA 00:02:11
Time 00:05:30 | Step 4386279 / 6000000 | TPS 13311.3 | ETA 00:02:01
Time 00:05:40 | Step 4519415 / 6000000 | TPS 13313.5 | ETA 00:01:51
Time 00:05:50 | Step 4652746 / 6000000 | TPS 13333 | ETA 00:01:41
Time 00:06:00 | Step 4786050 / 6000000 | TPS 13330.4 | ETA 00:01:31
Time 00:06:10 | Step 4919098 / 6000000 | TPS 13304.8 | ETA 00:01:21
Time 00:06:20 | Step 5052017 / 6000000 | TPS 13291.8 | ETA 00:01:11
Time 00:06:30 | Step 5184978 / 6000000 | TPS 13296.1 | ETA 00:01:01
Time 00:06:40 | Step 5317887 / 6000000 | TPS 13290.9 | ETA 00:00:51
Time 00:06:50 | Step 5450648 / 6000000 | TPS 13276 | ETA 00:00:41
Time 00:07:00 | Step 5583468 / 6000000 | TPS 13282 | ETA 00:00:31
Time 00:07:10 | Step 5716309 / 6000000 | TPS 13284.1 | ETA 00:00:21
Time 00:07:20 | Step 5849056 / 6000000 | TPS 13274.6 | ETA 00:00:11
Time 00:07:30 | Step 5981869 / 6000000 | TPS 13281.2 | ETA 00:00:01
Time 00:07:31 | Step 6000000 / 6000000 | TPS 13266.5 | ETA 00:00:00
Average TPS: 13292.9
---------
-- Neighborlist stats:
20095 normal updates / 20000 forced updates / 0 dangerous updates
n_neigh_min: 0 / n_neigh_max: 0 / n_neigh_avg: 0
shortest rebuild period: 99
** run complete **
