HOOMD-blue 2.9.6 CUDA (10.2) DOUBLE HPMC_MIXED TBB SSE SSE2 SSE3 
Compiled: 03/17/2021
Copyright (c) 2009-2019 The Regents of the University of Michigan.
-----
You are using HOOMD-blue. Please cite the following:
* J A Anderson, J Glaser, and S C Glotzer. "HOOMD-blue: A Python package for
  high-performance molecular dynamics and hard particle Monte Carlo
  simulations", Computational Materials Science 173 (2020) 109363
-----
HOOMD-blue is running on the following GPU(s):
 [0]  Tesla P100-PCIE-12GB  56 SM_6.0 @ 1.33 GHz, 12198 MiB DRAM, MNG
run.py:007  |  system = read_gsd("/home/erjank_project/chrisjones/pekk-msibi-final/learning-runs/single-chains/workspace/406ebab1bb7367f5094f47bcde8b8e44/components.gsd", frame=-1, time_step=0)
notice(2): Group "all" created containing 60 particles
run.py:009  |  nl = hoomd.md.nlist.tree()
-----
You are using tree neighbor lists. Please cite the following:
* M P Howard, J A Anderson, A Nikoubashman, S C Glotzer, and A Z
  Panagiotopoulos. "Efficient neighbor list calculation for molecular simulation
  of colloidal systems using graphics processing units", Computer Physics
  Communications 203 (2016) 45--52
* M P Howard, A Statt, F Madutsa, T M Truskett, and A Z Panagiotopoulos.
  "Quantized bounding volume hierarchies for neighbor search in molecular
  simulations on graphics processing units", Computational Materials Science 164
  (2019) 139--146
-----
run.py:010  |  nl.reset_exclusions(exclusions=['1-2', '1-3'])
notice(2): -- Neighborlist exclusion statistics -- :
notice(2): Particles with 2 exclusions             : 2
notice(2): Particles with 3 exclusions             : 2
notice(2): Particles with 4 exclusions             : 56
notice(2): Neighbors included by diameter          : no
notice(2): Neighbors excluded when in the same body: no
run.py:012  |  lj = hoomd.md.pair.lj(nlist=nl, r_cut=0)
run.py:013  |  lj.pair_coeff.set('E', 'E', epsilon=0, sigma=1, r_cut=0)
run.py:014  |  lj.pair_coeff.set('K', 'K', epsilon=0, sigma=1, r_cut=0)
run.py:015  |  lj.pair_coeff.set('E', 'K', epsilon=0, sigma=1, r_cut=0)
run.py:016  |  harmonic_bond = hoomd.md.bond.harmonic()
run.py:017  |  harmonic_bond.bond_coeff.set('E-K', k=850, r0=1.47)
run.py:018  |  harmonic_bond.bond_coeff.set('K-K', k=1450, r0=1.53)
run.py:019  |  atable = hoomd.md.angle.table(width=200)
run.py:020  |  atable.set_from_file('E-K-K', '/home/erjank_project/chrisjones/pekk-msibi-final/msibi-runs/angles-harmonic-bonds-6.5kT/potentials/angle_pot.E-K-K.txt')
run.py:021  |  atable.set_from_file('K-E-K', '/home/erjank_project/chrisjones/pekk-msibi-final/msibi-runs/angles-harmonic-bonds-6.5kT/potentials/angle_pot.K-E-K.txt')
run.py:023  |  _all = hoomd.group.all()
run.py:024  |  hoomd.md.integrate.mode_standard(0.0003)
run.py:026  |  integrator = hoomd.md.integrate.nvt(group=_all, **integrator_kwargs)
run.py:000  |  
import hoomd
import hoomd.md
from hoomd.init import read_gsd

hoomd.context.initialize("")
system = read_gsd("/home/erjank_project/chrisjones/pekk-msibi-final/learning-runs/single-chains/workspace/406ebab1bb7367f5094f47bcde8b8e44/components.gsd", frame=-1, time_step=0)

nl = hoomd.md.nlist.tree()
nl.reset_exclusions(exclusions=['1-2', '1-3'])

lj = hoomd.md.pair.lj(nlist=nl, r_cut=0)
lj.pair_coeff.set('E', 'E', epsilon=0, sigma=1, r_cut=0)
lj.pair_coeff.set('K', 'K', epsilon=0, sigma=1, r_cut=0)
lj.pair_coeff.set('E', 'K', epsilon=0, sigma=1, r_cut=0)
harmonic_bond = hoomd.md.bond.harmonic()
harmonic_bond.bond_coeff.set('E-K', k=850, r0=1.47)
harmonic_bond.bond_coeff.set('K-K', k=1450, r0=1.53)
atable = hoomd.md.angle.table(width=200)
atable.set_from_file('E-K-K', '/home/erjank_project/chrisjones/pekk-msibi-final/msibi-runs/angles-harmonic-bonds-6.5kT/potentials/angle_pot.E-K-K.txt')
atable.set_from_file('K-E-K', '/home/erjank_project/chrisjones/pekk-msibi-final/msibi-runs/angles-harmonic-bonds-6.5kT/potentials/angle_pot.K-E-K.txt')

_all = hoomd.group.all()
hoomd.md.integrate.mode_standard(0.0003)
integrator_kwargs = {'tau': 0.01, 'kT': 6.5}
integrator = hoomd.md.integrate.nvt(group=_all, **integrator_kwargs)


hoomd.dump.gsd(
run.py:037  |  hoomd.run(6000000)
** starting run **
Time 00:00:10 | Step 127540 / 6000000 | TPS 12753.9 | ETA 00:07:40
Time 00:00:20 | Step 261186 / 6000000 | TPS 13364.5 | ETA 00:07:09
Time 00:00:30 | Step 394751 / 6000000 | TPS 13356.4 | ETA 00:06:59
Time 00:00:40 | Step 528424 / 6000000 | TPS 13367.3 | ETA 00:06:49
Time 00:00:50 | Step 661916 / 6000000 | TPS 13349.1 | ETA 00:06:39
Time 00:01:00 | Step 795280 / 6000000 | TPS 13336.3 | ETA 00:06:30
Time 00:01:10 | Step 928549 / 6000000 | TPS 13326.9 | ETA 00:06:20
Time 00:01:20 | Step 1062129 / 6000000 | TPS 13357.9 | ETA 00:06:09
Time 00:01:30 | Step 1195544 / 6000000 | TPS 13341.5 | ETA 00:06:00
Time 00:01:40 | Step 1328588 / 6000000 | TPS 13304.3 | ETA 00:05:51
Time 00:01:50 | Step 1461828 / 6000000 | TPS 13323.9 | ETA 00:05:40
Time 00:02:00 | Step 1595309 / 6000000 | TPS 13348 | ETA 00:05:29
Time 00:02:10 | Step 1728793 / 6000000 | TPS 13348.3 | ETA 00:05:19
Time 00:02:20 | Step 1862266 / 6000000 | TPS 13347.3 | ETA 00:05:10
Time 00:02:30 | Step 1995576 / 6000000 | TPS 13331 | ETA 00:05:00
Time 00:02:40 | Step 2129004 / 6000000 | TPS 13342.7 | ETA 00:04:50
Time 00:02:50 | Step 2262524 / 6000000 | TPS 13351.9 | ETA 00:04:39
Time 00:03:00 | Step 2396150 / 6000000 | TPS 13362.5 | ETA 00:04:29
Time 00:03:10 | Step 2529462 / 6000000 | TPS 13331.1 | ETA 00:04:20
Time 00:03:20 | Step 2662600 / 6000000 | TPS 13313.7 | ETA 00:04:10
Time 00:03:30 | Step 2795907 / 6000000 | TPS 13330.7 | ETA 00:04:00
Time 00:03:40 | Step 2929299 / 6000000 | TPS 13339.2 | ETA 00:03:50
Time 00:03:50 | Step 3062766 / 6000000 | TPS 13346.6 | ETA 00:03:40
Time 00:04:00 | Step 3196296 / 6000000 | TPS 13353 | ETA 00:03:29
Time 00:04:10 | Step 3329824 / 6000000 | TPS 13352.8 | ETA 00:03:19
Time 00:04:20 | Step 3463146 / 6000000 | TPS 13332.1 | ETA 00:03:10
Time 00:04:30 | Step 3596369 / 6000000 | TPS 13322.2 | ETA 00:03:00
Time 00:04:40 | Step 3729781 / 6000000 | TPS 13341.1 | ETA 00:02:50
Time 00:04:50 | Step 3863203 / 6000000 | TPS 13342.2 | ETA 00:02:40
Time 00:05:00 | Step 3996580 / 6000000 | TPS 13337.7 | ETA 00:02:30
Time 00:05:10 | Step 4129952 / 6000000 | TPS 13337.2 | ETA 00:02:20
Time 00:05:20 | Step 4263152 / 6000000 | TPS 13320 | ETA 00:02:10
Time 00:05:30 | Step 4396283 / 6000000 | TPS 13313 | ETA 00:02:00
Time 00:05:40 | Step 4529464 / 6000000 | TPS 13318.1 | ETA 00:01:50
Time 00:05:50 | Step 4662792 / 6000000 | TPS 13332.7 | ETA 00:01:40
Time 00:06:00 | Step 4796049 / 6000000 | TPS 13325.7 | ETA 00:01:30
Time 00:06:10 | Step 4929395 / 6000000 | TPS 13334.6 | ETA 00:01:20
Time 00:06:20 | Step 5062827 / 6000000 | TPS 13343.2 | ETA 00:01:10
Time 00:06:30 | Step 5195908 / 6000000 | TPS 13308 | ETA 00:01:00
Time 00:06:40 | Step 5329040 / 6000000 | TPS 13313.2 | ETA 00:00:50
Time 00:06:50 | Step 5462449 / 6000000 | TPS 13340.8 | ETA 00:00:40
Time 00:07:00 | Step 5595532 / 6000000 | TPS 13308.2 | ETA 00:00:30
Time 00:07:10 | Step 5728726 / 6000000 | TPS 13319.4 | ETA 00:00:20
Time 00:07:20 | Step 5862085 / 6000000 | TPS 13335.9 | ETA 00:00:10
Time 00:07:30 | Step 5995634 / 6000000 | TPS 13354.8 | ETA 00:00:00
Time 00:07:30 | Step 6000000 / 6000000 | TPS 13355.7 | ETA 00:00:00
Average TPS: 13323.6
---------
-- Neighborlist stats:
20114 normal updates / 20000 forced updates / 0 dangerous updates
n_neigh_min: 0 / n_neigh_max: 0 / n_neigh_avg: 0
shortest rebuild period: 99
** run complete **
