HOOMD-blue 2.9.6 CUDA (10.2) DOUBLE HPMC_MIXED TBB SSE SSE2 SSE3 
Compiled: 03/17/2021
Copyright (c) 2009-2019 The Regents of the University of Michigan.
-----
You are using HOOMD-blue. Please cite the following:
* J A Anderson, J Glaser, and S C Glotzer. "HOOMD-blue: A Python package for
  high-performance molecular dynamics and hard particle Monte Carlo
  simulations", Computational Materials Science 173 (2020) 109363
-----
HOOMD-blue is running on the following GPU(s):
 [0]  Tesla P100-PCIE-12GB  56 SM_6.0 @ 1.33 GHz, 12198 MiB DRAM, MNG
run.py:007  |  system = read_gsd("/home/erjank_project/chrisjones/pekk-msibi-final/learning-runs/single-chains/workspace/406ebab1bb7367f5094f47bcde8b8e44/components.gsd", frame=-1, time_step=0)
notice(2): Group "all" created containing 60 particles
run.py:009  |  nl = hoomd.md.nlist.tree()
-----
You are using tree neighbor lists. Please cite the following:
* M P Howard, J A Anderson, A Nikoubashman, S C Glotzer, and A Z
  Panagiotopoulos. "Efficient neighbor list calculation for molecular simulation
  of colloidal systems using graphics processing units", Computer Physics
  Communications 203 (2016) 45--52
* M P Howard, A Statt, F Madutsa, T M Truskett, and A Z Panagiotopoulos.
  "Quantized bounding volume hierarchies for neighbor search in molecular
  simulations on graphics processing units", Computational Materials Science 164
  (2019) 139--146
-----
run.py:010  |  nl.reset_exclusions(exclusions=['1-2', '1-3'])
notice(2): -- Neighborlist exclusion statistics -- :
notice(2): Particles with 2 exclusions             : 2
notice(2): Particles with 3 exclusions             : 2
notice(2): Particles with 4 exclusions             : 56
notice(2): Neighbors included by diameter          : no
notice(2): Neighbors excluded when in the same body: no
run.py:012  |  lj = hoomd.md.pair.lj(nlist=nl, r_cut=0)
run.py:013  |  lj.pair_coeff.set('E', 'E', epsilon=0, sigma=1, r_cut=0)
run.py:014  |  lj.pair_coeff.set('K', 'K', epsilon=0, sigma=1, r_cut=0)
run.py:015  |  lj.pair_coeff.set('E', 'K', epsilon=0, sigma=1, r_cut=0)
run.py:016  |  harmonic_bond = hoomd.md.bond.harmonic()
run.py:017  |  harmonic_bond.bond_coeff.set('E-K', k=850, r0=1.47)
run.py:018  |  harmonic_bond.bond_coeff.set('K-K', k=1450, r0=1.53)
run.py:019  |  atable = hoomd.md.angle.table(width=200)
run.py:020  |  atable.set_from_file('E-K-K', '/home/erjank_project/chrisjones/pekk-msibi-final/msibi-runs/angles-harmonic-bonds-6.5kT/potentials/angle_pot.E-K-K.txt')
run.py:021  |  atable.set_from_file('K-E-K', '/home/erjank_project/chrisjones/pekk-msibi-final/msibi-runs/angles-harmonic-bonds-6.5kT/potentials/angle_pot.K-E-K.txt')
run.py:023  |  _all = hoomd.group.all()
run.py:024  |  hoomd.md.integrate.mode_standard(0.0003)
run.py:026  |  integrator = hoomd.md.integrate.nvt(group=_all, **integrator_kwargs)
run.py:000  |  
import hoomd
import hoomd.md
from hoomd.init import read_gsd

hoomd.context.initialize("")
system = read_gsd("/home/erjank_project/chrisjones/pekk-msibi-final/learning-runs/single-chains/workspace/406ebab1bb7367f5094f47bcde8b8e44/components.gsd", frame=-1, time_step=0)

nl = hoomd.md.nlist.tree()
nl.reset_exclusions(exclusions=['1-2', '1-3'])

lj = hoomd.md.pair.lj(nlist=nl, r_cut=0)
lj.pair_coeff.set('E', 'E', epsilon=0, sigma=1, r_cut=0)
lj.pair_coeff.set('K', 'K', epsilon=0, sigma=1, r_cut=0)
lj.pair_coeff.set('E', 'K', epsilon=0, sigma=1, r_cut=0)
harmonic_bond = hoomd.md.bond.harmonic()
harmonic_bond.bond_coeff.set('E-K', k=850, r0=1.47)
harmonic_bond.bond_coeff.set('K-K', k=1450, r0=1.53)
atable = hoomd.md.angle.table(width=200)
atable.set_from_file('E-K-K', '/home/erjank_project/chrisjones/pekk-msibi-final/msibi-runs/angles-harmonic-bonds-6.5kT/potentials/angle_pot.E-K-K.txt')
atable.set_from_file('K-E-K', '/home/erjank_project/chrisjones/pekk-msibi-final/msibi-runs/angles-harmonic-bonds-6.5kT/potentials/angle_pot.K-E-K.txt')

_all = hoomd.group.all()
hoomd.md.integrate.mode_standard(0.0003)
integrator_kwargs = {'tau': 0.01, 'kT': 6.5}
integrator = hoomd.md.integrate.nvt(group=_all, **integrator_kwargs)


hoomd.dump.gsd(
run.py:037  |  hoomd.run(6000000)
** starting run **
Time 00:00:10 | Step 127757 / 6000000 | TPS 12775.6 | ETA 00:07:39
Time 00:00:20 | Step 260189 / 6000000 | TPS 13243.1 | ETA 00:07:13
Time 00:00:30 | Step 392505 / 6000000 | TPS 13231.6 | ETA 00:07:03
Time 00:00:40 | Step 525045 / 6000000 | TPS 13254 | ETA 00:06:53
Time 00:00:50 | Step 657521 / 6000000 | TPS 13247.5 | ETA 00:06:43
Time 00:01:00 | Step 789875 / 6000000 | TPS 13235.4 | ETA 00:06:33
Time 00:01:10 | Step 922236 / 6000000 | TPS 13236 | ETA 00:06:23
Time 00:01:20 | Step 1054801 / 6000000 | TPS 13256.4 | ETA 00:06:13
Time 00:01:30 | Step 1187391 / 6000000 | TPS 13259 | ETA 00:06:02
Time 00:01:40 | Step 1319663 / 6000000 | TPS 13227.1 | ETA 00:05:53
Time 00:01:50 | Step 1452435 / 6000000 | TPS 13277.2 | ETA 00:05:42
Time 00:02:00 | Step 1584795 / 6000000 | TPS 13235.9 | ETA 00:05:33
Time 00:02:10 | Step 1717380 / 6000000 | TPS 13258.5 | ETA 00:05:23
Time 00:02:20 | Step 1849825 / 6000000 | TPS 13244.5 | ETA 00:05:13
Time 00:02:30 | Step 1982292 / 6000000 | TPS 13246.7 | ETA 00:05:03
Time 00:02:40 | Step 2114591 / 6000000 | TPS 13229.9 | ETA 00:04:53
Time 00:02:50 | Step 2246925 / 6000000 | TPS 13233.4 | ETA 00:04:43
Time 00:03:00 | Step 2379458 / 6000000 | TPS 13253.2 | ETA 00:04:33
Time 00:03:10 | Step 2512085 / 6000000 | TPS 13262.6 | ETA 00:04:22
Time 00:03:20 | Step 2644501 / 6000000 | TPS 13241.1 | ETA 00:04:13
Time 00:03:30 | Step 2777075 / 6000000 | TPS 13257.4 | ETA 00:04:03
Time 00:03:40 | Step 2909673 / 6000000 | TPS 13259.7 | ETA 00:03:53
Time 00:03:50 | Step 3042077 / 6000000 | TPS 13240.3 | ETA 00:03:43
Time 00:04:00 | Step 3174544 / 6000000 | TPS 13246.7 | ETA 00:03:33
Time 00:04:10 | Step 3307052 / 6000000 | TPS 13250.8 | ETA 00:03:23
Time 00:04:20 | Step 3439805 / 6000000 | TPS 13275.3 | ETA 00:03:12
Time 00:04:30 | Step 3572322 / 6000000 | TPS 13251.6 | ETA 00:03:03
Time 00:04:40 | Step 3704975 / 6000000 | TPS 13265.3 | ETA 00:02:53
Time 00:04:50 | Step 3837701 / 6000000 | TPS 13272.5 | ETA 00:02:42
Time 00:05:00 | Step 3970191 / 6000000 | TPS 13248.9 | ETA 00:02:33
Time 00:05:10 | Step 4102652 / 6000000 | TPS 13246.1 | ETA 00:02:23
Time 00:05:20 | Step 4235234 / 6000000 | TPS 13258.1 | ETA 00:02:13
Time 00:05:30 | Step 4367550 / 6000000 | TPS 13231.6 | ETA 00:02:03
Time 00:05:40 | Step 4499893 / 6000000 | TPS 13234.2 | ETA 00:01:53
Time 00:05:50 | Step 4632177 / 6000000 | TPS 13228.3 | ETA 00:01:43
Time 00:06:00 | Step 4764598 / 6000000 | TPS 13242 | ETA 00:01:33
Time 00:06:10 | Step 4896300 / 6000000 | TPS 13170.2 | ETA 00:01:23
Time 00:06:20 | Step 5029191 / 6000000 | TPS 13289.1 | ETA 00:01:13
Time 00:06:30 | Step 5161517 / 6000000 | TPS 13232.6 | ETA 00:01:03
Time 00:06:40 | Step 5293937 / 6000000 | TPS 13242 | ETA 00:00:53
Time 00:06:50 | Step 5426186 / 6000000 | TPS 13224.8 | ETA 00:00:43
Time 00:07:00 | Step 5558874 / 6000000 | TPS 13268.7 | ETA 00:00:33
Time 00:07:10 | Step 5691361 / 6000000 | TPS 13248.6 | ETA 00:00:23
Time 00:07:20 | Step 5824033 / 6000000 | TPS 13267.2 | ETA 00:00:13
Time 00:07:30 | Step 5956581 / 6000000 | TPS 13254.7 | ETA 00:00:03
Time 00:07:33 | Step 6000000 / 6000000 | TPS 13242.4 | ETA 00:00:00
Average TPS: 13236.8
---------
-- Neighborlist stats:
20122 normal updates / 20000 forced updates / 0 dangerous updates
n_neigh_min: 0 / n_neigh_max: 0 / n_neigh_avg: 0
shortest rebuild period: 99
** run complete **
