HOOMD-blue 2.9.6 CUDA (10.2) DOUBLE HPMC_MIXED TBB SSE SSE2 SSE3 
Compiled: 03/17/2021
Copyright (c) 2009-2019 The Regents of the University of Michigan.
-----
You are using HOOMD-blue. Please cite the following:
* J A Anderson, J Glaser, and S C Glotzer. "HOOMD-blue: A Python package for
  high-performance molecular dynamics and hard particle Monte Carlo
  simulations", Computational Materials Science 173 (2020) 109363
-----
HOOMD-blue is running on the following GPU(s):
 [0]  Tesla P100-PCIE-12GB  56 SM_6.0 @ 1.33 GHz, 12198 MiB DRAM, MNG
run.py:007  |  system = read_gsd("/home/erjank_project/chrisjones/pekk-msibi-final/learning-runs/single-chains/workspace/406ebab1bb7367f5094f47bcde8b8e44/components.gsd", frame=-1, time_step=0)
notice(2): Group "all" created containing 60 particles
run.py:009  |  nl = hoomd.md.nlist.tree()
-----
You are using tree neighbor lists. Please cite the following:
* M P Howard, J A Anderson, A Nikoubashman, S C Glotzer, and A Z
  Panagiotopoulos. "Efficient neighbor list calculation for molecular simulation
  of colloidal systems using graphics processing units", Computer Physics
  Communications 203 (2016) 45--52
* M P Howard, A Statt, F Madutsa, T M Truskett, and A Z Panagiotopoulos.
  "Quantized bounding volume hierarchies for neighbor search in molecular
  simulations on graphics processing units", Computational Materials Science 164
  (2019) 139--146
-----
run.py:010  |  nl.reset_exclusions(exclusions=['1-2', '1-3'])
notice(2): -- Neighborlist exclusion statistics -- :
notice(2): Particles with 2 exclusions             : 2
notice(2): Particles with 3 exclusions             : 2
notice(2): Particles with 4 exclusions             : 56
notice(2): Neighbors included by diameter          : no
notice(2): Neighbors excluded when in the same body: no
run.py:012  |  lj = hoomd.md.pair.lj(nlist=nl, r_cut=0)
run.py:013  |  lj.pair_coeff.set('E', 'E', epsilon=0, sigma=1, r_cut=0)
run.py:014  |  lj.pair_coeff.set('K', 'K', epsilon=0, sigma=1, r_cut=0)
run.py:015  |  lj.pair_coeff.set('E', 'K', epsilon=0, sigma=1, r_cut=0)
run.py:016  |  harmonic_bond = hoomd.md.bond.harmonic()
run.py:017  |  harmonic_bond.bond_coeff.set('E-K', k=850, r0=1.47)
run.py:018  |  harmonic_bond.bond_coeff.set('K-K', k=1450, r0=1.53)
run.py:019  |  atable = hoomd.md.angle.table(width=200)
run.py:020  |  atable.set_from_file('E-K-K', '/home/erjank_project/chrisjones/pekk-msibi-final/msibi-runs/angles-harmonic-bonds-6.5kT/potentials/angle_pot.E-K-K.txt')
run.py:021  |  atable.set_from_file('K-E-K', '/home/erjank_project/chrisjones/pekk-msibi-final/msibi-runs/angles-harmonic-bonds-6.5kT/potentials/angle_pot.K-E-K.txt')
run.py:023  |  _all = hoomd.group.all()
run.py:024  |  hoomd.md.integrate.mode_standard(0.0003)
run.py:026  |  integrator = hoomd.md.integrate.nvt(group=_all, **integrator_kwargs)
run.py:000  |  
import hoomd
import hoomd.md
from hoomd.init import read_gsd

hoomd.context.initialize("")
system = read_gsd("/home/erjank_project/chrisjones/pekk-msibi-final/learning-runs/single-chains/workspace/406ebab1bb7367f5094f47bcde8b8e44/components.gsd", frame=-1, time_step=0)

nl = hoomd.md.nlist.tree()
nl.reset_exclusions(exclusions=['1-2', '1-3'])

lj = hoomd.md.pair.lj(nlist=nl, r_cut=0)
lj.pair_coeff.set('E', 'E', epsilon=0, sigma=1, r_cut=0)
lj.pair_coeff.set('K', 'K', epsilon=0, sigma=1, r_cut=0)
lj.pair_coeff.set('E', 'K', epsilon=0, sigma=1, r_cut=0)
harmonic_bond = hoomd.md.bond.harmonic()
harmonic_bond.bond_coeff.set('E-K', k=850, r0=1.47)
harmonic_bond.bond_coeff.set('K-K', k=1450, r0=1.53)
atable = hoomd.md.angle.table(width=200)
atable.set_from_file('E-K-K', '/home/erjank_project/chrisjones/pekk-msibi-final/msibi-runs/angles-harmonic-bonds-6.5kT/potentials/angle_pot.E-K-K.txt')
atable.set_from_file('K-E-K', '/home/erjank_project/chrisjones/pekk-msibi-final/msibi-runs/angles-harmonic-bonds-6.5kT/potentials/angle_pot.K-E-K.txt')

_all = hoomd.group.all()
hoomd.md.integrate.mode_standard(0.0003)
integrator_kwargs = {'tau': 0.01, 'kT': 6.5}
integrator = hoomd.md.integrate.nvt(group=_all, **integrator_kwargs)


hoomd.dump.gsd(
run.py:037  |  hoomd.run(6000000)
** starting run **
Time 00:00:10 | Step 128835 / 6000000 | TPS 12883.4 | ETA 00:07:35
Time 00:00:20 | Step 262642 / 6000000 | TPS 13380.6 | ETA 00:07:08
Time 00:00:30 | Step 396490 / 6000000 | TPS 13384.8 | ETA 00:06:58
Time 00:00:40 | Step 530462 / 6000000 | TPS 13397.1 | ETA 00:06:48
Time 00:00:50 | Step 664241 / 6000000 | TPS 13377.8 | ETA 00:06:38
Time 00:01:00 | Step 798123 / 6000000 | TPS 13388.2 | ETA 00:06:28
Time 00:01:10 | Step 931777 / 6000000 | TPS 13365.4 | ETA 00:06:19
Time 00:01:20 | Step 1065375 / 6000000 | TPS 13359.7 | ETA 00:06:09
Time 00:01:30 | Step 1199245 / 6000000 | TPS 13387 | ETA 00:05:58
Time 00:01:40 | Step 1333049 / 6000000 | TPS 13380.4 | ETA 00:05:48
Time 00:01:50 | Step 1466764 / 6000000 | TPS 13371.5 | ETA 00:05:39
Time 00:02:00 | Step 1600511 / 6000000 | TPS 13374.7 | ETA 00:05:28
Time 00:02:10 | Step 1734292 / 6000000 | TPS 13378 | ETA 00:05:18
Time 00:02:20 | Step 1868119 / 6000000 | TPS 13382.6 | ETA 00:05:08
Time 00:02:30 | Step 2001983 / 6000000 | TPS 13386.4 | ETA 00:04:58
Time 00:02:40 | Step 2135812 / 6000000 | TPS 13382.9 | ETA 00:04:48
Time 00:02:50 | Step 2269588 / 6000000 | TPS 13377.6 | ETA 00:04:38
Time 00:03:00 | Step 2403286 / 6000000 | TPS 13369.7 | ETA 00:04:29
Time 00:03:10 | Step 2536987 / 6000000 | TPS 13370.1 | ETA 00:04:19
Time 00:03:20 | Step 2670725 / 6000000 | TPS 13373.8 | ETA 00:04:08
Time 00:03:30 | Step 2804458 / 6000000 | TPS 13373.2 | ETA 00:03:58
Time 00:03:40 | Step 2938114 / 6000000 | TPS 13365.6 | ETA 00:03:49
Time 00:03:50 | Step 3071823 / 6000000 | TPS 13370.9 | ETA 00:03:38
Time 00:04:00 | Step 3205491 / 6000000 | TPS 13366.7 | ETA 00:03:29
Time 00:04:10 | Step 3338930 / 6000000 | TPS 13343.8 | ETA 00:03:19
Time 00:04:20 | Step 3472600 / 6000000 | TPS 13366.9 | ETA 00:03:09
Time 00:04:30 | Step 3606192 / 6000000 | TPS 13359.2 | ETA 00:02:59
Time 00:04:40 | Step 3739781 / 6000000 | TPS 13358.9 | ETA 00:02:49
Time 00:04:50 | Step 3873388 / 6000000 | TPS 13360.6 | ETA 00:02:39
Time 00:05:00 | Step 4007022 / 6000000 | TPS 13363.3 | ETA 00:02:29
Time 00:05:10 | Step 4140651 / 6000000 | TPS 13362.8 | ETA 00:02:19
Time 00:05:20 | Step 4274414 / 6000000 | TPS 13376.3 | ETA 00:02:09
Time 00:05:30 | Step 4408935 / 6000000 | TPS 13452.1 | ETA 00:01:58
Time 00:05:40 | Step 4543272 / 6000000 | TPS 13433.7 | ETA 00:01:48
Time 00:05:50 | Step 4677970 / 6000000 | TPS 13469.8 | ETA 00:01:38
Time 00:06:00 | Step 4812691 / 6000000 | TPS 13472 | ETA 00:01:28
Time 00:06:10 | Step 4947381 / 6000000 | TPS 13468.9 | ETA 00:01:18
Time 00:06:20 | Step 5081878 / 6000000 | TPS 13449.7 | ETA 00:01:08
Time 00:06:30 | Step 5216288 / 6000000 | TPS 13440.9 | ETA 00:00:58
Time 00:06:40 | Step 5350955 / 6000000 | TPS 13466.6 | ETA 00:00:48
Time 00:06:50 | Step 5485616 / 6000000 | TPS 13466.1 | ETA 00:00:38
Time 00:07:00 | Step 5620222 / 6000000 | TPS 13460.6 | ETA 00:00:28
Time 00:07:10 | Step 5754650 / 6000000 | TPS 13442.8 | ETA 00:00:18
Time 00:07:20 | Step 5889228 / 6000000 | TPS 13457.7 | ETA 00:00:08
Time 00:07:28 | Step 6000000 / 6000000 | TPS 13449.6 | ETA 00:00:00
Average TPS: 13385.8
---------
-- Neighborlist stats:
20101 normal updates / 20000 forced updates / 0 dangerous updates
n_neigh_min: 0 / n_neigh_max: 0 / n_neigh_avg: 0
shortest rebuild period: 99
** run complete **
